266
Lattice="34.9383156615 0.0 0.0 0.0 14.7643896 0.0 0.0 0.0 15.34360374" Properties=species:S:1:pos:R:3:forces:R:3:magmoms:R:1 energy=-636.7801236992683 dipole="-286.170494605647 -88.52431429693638 24.183864374700516" magmom=0.0 free_energy=-636.8058690612139 pbc="T T T"
Au       0.00000000       0.00000000       0.00000000      -0.09232742       0.00596039       0.02649155       0.00000000
Au       0.00000000       0.00000000       5.11453458      -0.09302136       0.00702376      -0.03013354       0.00000000
Au       0.00000000       0.00000000      10.22906916      -0.07303103      -0.03011898       0.00053042       0.00000000
Au       0.00000000       1.47643896       2.55726729      -0.07069105      -0.01009388      -0.00687741       0.00000000
Au       0.00000000       1.47643896       7.67180187      -0.06896451       0.04029692      -0.02064451       0.00000000
Au       0.00000000       1.47643896      12.78633645      -0.07661932       0.02820405       0.00312052       0.00000000
Au       0.00000000       2.95287792       0.00000000      -0.07411929      -0.01207050      -0.02150335       0.00000000
Au       0.00000000       2.95287792       5.11453458      -0.08758040      -0.02867098      -0.00409388       0.00000000
Au       0.00000000       2.95287792      10.22906916      -0.05758461       0.00193728       0.02309286       0.00000000
Au       0.00000000       4.42931688       2.55726729      -0.04951089       0.01690445       0.01097378       0.00000000
Au       0.00000000       4.42931688       7.67180187      -0.06175235      -0.02207932       0.04290435       0.00000000
Au       0.00000000       4.42931688      12.78633645      -0.04157666      -0.02660995       0.02123406       0.00000000
Au       0.00000000       5.90575584       0.00000000      -0.04907987       0.00111101       0.01334979       0.00000000
Au       0.00000000       5.90575584       5.11453458      -0.10524514       0.00078822      -0.02921006       0.00000000
Au       0.00000000       5.90575584      10.22906916      -0.03055946       0.00093682       0.00401824       0.00000000
Au       0.00000000       7.38219480       2.55726729      -0.04917267      -0.01603028       0.00645160       0.00000000
Au       0.00000000       7.38219480       7.67180187      -0.06184076       0.01746200       0.04285119       0.00000000
Au       0.00000000       7.38219480      12.78633645      -0.04123652       0.02755317       0.02518501       0.00000000
Au       0.00000000       8.85863376       0.00000000      -0.07345636       0.01577788      -0.02138974       0.00000000
Au       0.00000000       8.85863376       5.11453458      -0.08753934       0.02725504      -0.00440719       0.00000000
Au       0.00000000       8.85863376      10.22906916      -0.05774164      -0.00333183       0.02356326       0.00000000
Au       0.00000000      10.33507272       2.55726729      -0.07092246       0.00874403      -0.00707320       0.00000000
Au       0.00000000      10.33507272       7.67180187      -0.06854064      -0.03688865      -0.02063193       0.00000000
Au       0.00000000      10.33507272      12.78633645      -0.07593724      -0.02947404       0.00340206       0.00000000
Au       0.00000000      11.81151168       0.00000000      -0.09239307      -0.01083461       0.02656034       0.00000000
Au       0.00000000      11.81151168       5.11453458      -0.09266728      -0.00628806      -0.03457433       0.00000000
Au       0.00000000      11.81151168      10.22906916      -0.07256231       0.03058242       0.00509679       0.00000000
Au       0.00000000      13.28795064       2.55726729      -0.06386734       0.00049676       0.00564527       0.00000000
Au       0.00000000      13.28795064       7.67180187      -0.05641765       0.00115712       0.05088545       0.00000000
Au       0.00000000      13.28795064      12.78633645      -0.12388236       0.00030827      -0.01371982       0.00000000
Au       2.41101472       0.00000000       3.40968972       0.13476837      -0.01744672       0.02320906       0.00000000
Au       2.41101472       0.00000000       8.52422430       0.06791710      -0.01509507       0.00070887       0.00000000
Au       2.41101472       0.00000000      13.63875888       0.07978648       0.01397732       0.00107070       0.00000000
Au       2.41101472       1.47643896       0.85242243       0.11951946       0.00486023      -0.03907069       0.00000000
Au       2.41101472       1.47643896       5.96695701       0.09816965      -0.01580118      -0.01511730       0.00000000
Au       2.41101472       1.47643896      11.08149159       0.06342723       0.01089572       0.03814974       0.00000000
Au       2.41101472       2.95287792       3.40968972       0.08605858      -0.01241645       0.02044989       0.00000000
Au       2.41101472       2.95287792       8.52422430       0.06149324      -0.01422298      -0.00693572       0.00000000
Au       2.41101472       2.95287792      13.63875888       0.09709732      -0.00554145       0.00510290       0.00000000
Au       2.41101472       4.42931688       0.85242243       0.05543051      -0.01364729      -0.03838621       0.00000000
Au       2.41101472       4.42931688       5.96695701      -0.00404775       0.02633176      -0.01305651       0.00000000
Au       2.41101472       4.42931688      11.08149159       0.12695648       0.01376323      -0.01348203       0.00000000
Au       2.41101472       5.90575584       3.40968972      -0.00716614       0.00031123       0.04331888       0.00000000
Au       2.41101472       5.90575584       8.52422430       0.08368811       0.00124366       0.01390664       0.00000000
Au       2.41101472       5.90575584      13.63875888       0.08368854       0.00167796       0.03125709       0.00000000
Au       2.41101472       7.38219480       0.85242243       0.05989223       0.01173078      -0.03497837       0.00000000
Au       2.41101472       7.38219480       5.96695701      -0.00445742      -0.02615027      -0.01502142       0.00000000
Au       2.41101472       7.38219480      11.08149159       0.12839279      -0.01585980      -0.01625535       0.00000000
Au       2.41101472       8.85863376       3.40968972       0.08893774       0.01353994       0.02046143       0.00000000
Au       2.41101472       8.85863376       8.52422430       0.05968432       0.01351174      -0.00502463       0.00000000
Au       2.41101472       8.85863376      13.63875888       0.09883715       0.00279067       0.00348251       0.00000000
Au       2.41101472      10.33507272       0.85242243       0.11996136      -0.00473575      -0.04047955       0.00000000
Au       2.41101472      10.33507272       5.96695701       0.09553770       0.01320679      -0.01407361       0.00000000
Au       2.41101472      10.33507272      11.08149159       0.06126545      -0.00872131       0.03876549       0.00000000
Au       2.41101472      11.81151168       3.40968972       0.13121313       0.01607606       0.02555515       0.00000000
Au       2.41101472      11.81151168       8.52422430       0.06384429       0.01428682      -0.00256803       0.00000000
Au       2.41101472      11.81151168      13.63875888       0.08057584      -0.01302109       0.00168627       0.00000000
Au       2.41101472      13.28795064       0.85242243       0.09835658       0.00167122      -0.01531949       0.00000000
Au       2.41101472      13.28795064       5.96695701       0.10789711       0.00227417      -0.02570151       0.00000000
Au       2.41101472      13.28795064      11.08149159       0.07079351      -0.00017075       0.00000446       0.00000000
Au       4.82202945       0.00000000       1.70484486      -0.17468726      -0.01049091      -0.02158357       0.00000000
Au       4.82202945       0.00000000       6.81937944      -0.13331890       0.02825023       0.01058538       0.00000000
Au       4.82202945       0.00000000      11.93391402      -0.12210319      -0.01068433       0.00848230       0.00000000
Au       4.82202945       1.47643896       4.26211215      -0.02620472       0.11040015       0.07004409       0.00000000
Au       4.82202945       1.47643896       9.37664673      -0.10671421       0.04391615      -0.00694874       0.00000000
Au       4.82202945       1.47643896      14.49118131      -0.13311405       0.01513030       0.01921018       0.00000000
Au       4.82202945       2.95287792       1.70484486       0.00816174       0.10185679       0.03119007       0.00000000
Au       4.82202945       2.95287792       6.81937944      -0.15233333      -0.02413116       0.00944187       0.00000000
Au       4.82202945       2.95287792      11.93391402      -0.16480180      -0.02850817       0.01542208       0.00000000
Au       4.82202945       4.42931688       4.26211215       0.00709227       0.08569030       0.03743108       0.00000000
Au       4.82202945       4.42931688       9.37664673      -0.00442901       0.01311006      -0.13322891       0.00000000
Au       4.82202945       4.42931688      14.49118131      -0.15347141      -0.01444561      -0.00223404       0.00000000
Au       4.82202945       5.90575584       1.70484486      -0.14619869       0.00257871      -0.03003347       0.00000000
Au       4.82202945       5.90575584       6.81937944       0.02250754       0.00290318      -0.07865733       0.00000000
Au       4.82202945       5.90575584      11.93391402      -0.17250086       0.00147658       0.01193955       0.00000000
Au       4.82202945       7.38219480       4.26211215       0.01039203      -0.08674203       0.04047658       0.00000000
Au       4.82202945       7.38219480       9.37664673      -0.00427945      -0.01226972      -0.13242999       0.00000000
Au       4.82202945       7.38219480      14.49118131      -0.15184975       0.01282789      -0.00488899       0.00000000
Au       4.82202945       8.85863376       1.70484486       0.00601969      -0.10616035       0.03225381       0.00000000
Au       4.82202945       8.85863376       6.81937944      -0.15094382       0.02221462       0.00873871       0.00000000
Au       4.82202945       8.85863376      11.93391402      -0.16378886       0.02709982       0.01394015       0.00000000
Au       4.82202945      10.33507272       4.26211215      -0.02949294      -0.11078426       0.07154080       0.00000000
Au       4.82202945      10.33507272       9.37664673      -0.10720947      -0.04785167      -0.00822697       0.00000000
Au       4.82202945      10.33507272      14.49118131      -0.13686440      -0.01686043       0.01934659       0.00000000
Au       4.82202945      11.81151168       1.70484486      -0.17637673       0.01225376      -0.02100741       0.00000000
Au       4.82202945      11.81151168       6.81937944      -0.13634952      -0.02935267       0.01309828       0.00000000
Au       4.82202945      11.81151168      11.93391402      -0.12604984       0.01066642       0.00616729       0.00000000
Au       4.82202945      13.28795064       4.26211215      -0.12865252       0.00142172      -0.03060719       0.00000000
Au       4.82202945      13.28795064       9.37664673      -0.12511809       0.00292542      -0.02523543       0.00000000
Au       4.82202945      13.28795064      14.49118131      -0.15686516       0.00330658       0.00850989       0.00000000
Au       7.23304417       0.00000000       0.00000000       0.37803020      -0.04700511       0.03125254       0.00000000
Au       7.23304417       0.00000000       5.11453458       0.31628297       0.02908121       0.01488774       0.00000000
Au       7.23304417       0.00000000      10.22906916       0.31106998      -0.01342816       0.01464015       0.00000000
Au       7.23304417       1.47643896       2.55726729       0.33354386      -0.01903579      -0.06055262       0.00000000
Au       7.23304417       1.47643896       7.67180187       0.39467076      -0.13426843      -0.01005534       0.00000000
Au       7.23304417       1.47643896      12.78633645       0.33438709       0.04802133      -0.06173893       0.00000000
Au       7.23304417       2.95287792       0.00000000       0.33071029      -0.01589301      -0.02058451       0.00000000
Au       7.23304417       2.95287792       5.11453458       0.39831556      -0.54000862      -0.05922086       0.00000000
Au       7.23304417       2.95287792      10.22906916       0.32450703      -0.03270067       0.00367587       0.00000000
Au       7.23304417       4.42931688       2.55726729       0.35428245      -0.28541529      -0.37543817       0.00000000
Au       7.23304417       4.42931688       7.67180187       0.27137876      -0.20190654       0.46190935       0.00000000
Au       7.23304417       4.42931688      12.78633645       0.37056494       0.02538276      -0.01645634       0.00000000
Au       7.23304417       5.90575584       0.00000000       0.38030224       0.00366500      -0.12581066       0.00000000
Au       7.23304417       5.90575584       5.11453458      -0.87297933       0.00057318      -0.01421166       0.00000000
Au       7.23304417       5.90575584      10.22906916       0.32268841       0.00317042       0.02953568       0.00000000
Au       7.23304417       7.38219480       2.55726729       0.35257905       0.28773337      -0.37758664       0.00000000
Au       7.23304417       7.38219480       7.67180187       0.27072749       0.20088375       0.46344765       0.00000000
Au       7.23304417       7.38219480      12.78633645       0.37137268      -0.02547807      -0.01502540       0.00000000
Au       7.23304417       8.85863376       0.00000000       0.33198881       0.01395961      -0.02007428       0.00000000
Au       7.23304417       8.85863376       5.11453458       0.39398800       0.53910582      -0.06117291       0.00000000
Au       7.23304417       8.85863376      10.22906916       0.32745402       0.02884051       0.00470248       0.00000000
Au       7.23304417      10.33507272       2.55726729       0.33285025       0.01446741      -0.06211733       0.00000000
Au       7.23304417      10.33507272       7.67180187       0.39793729       0.13278110      -0.01013798       0.00000000
Au       7.23304417      10.33507272      12.78633645       0.33364849      -0.05184840      -0.06082103       0.00000000
Au       7.23304417      11.81151168       0.00000000       0.37629181       0.04516408       0.03175877       0.00000000
Au       7.23304417      11.81151168       5.11453458       0.31657415      -0.02750961       0.01438967       0.00000000
Au       7.23304417      11.81151168      10.22906916       0.31100287       0.01410920       0.01567065       0.00000000
Au       7.23304417      13.28795064       2.55726729       0.35346547       0.00346063      -0.05172990       0.00000000
Au       7.23304417      13.28795064       7.67180187       0.35974400       0.00307010      -0.02517435       0.00000000
Au       7.23304417      13.28795064      12.78633645       0.38626853       0.00361871      -0.04481715       0.00000000
Au       9.47328657       7.38586852       5.97751591       0.18739758       0.20110239       0.09757304       0.00000000
Au       9.47463717       4.42675425       5.97752098       0.13511096      -0.22791547       0.10825524       0.00000000
Au       9.48293454       5.90572980       3.40660837       0.08585409      -0.00104410      -0.30974116       0.00000000
Au      11.66415507       5.90717847       5.19182162       0.28540306      -0.00006472      -0.04253574       0.00000000
H       13.70294815       5.34633366       3.47388322      -0.00988664       0.01282279      -0.00862179       0.00000000
N       13.98543134       5.84560832       4.33757932      -0.01600076      -0.02314771      -0.00213320       0.00000000
H       14.21585961       6.81439629       4.05256775      -0.00732260       0.00796595       0.00108071       0.00000000
H       14.21882258       3.24653421       4.88983623      -0.01835010       0.00860197      -0.02374008       0.00000000
C       15.13525352       3.82500175       5.11803237      -0.02103678       0.00007306       0.01511145       0.00000000
C       15.15622133       5.20286603       4.90027654      -0.02690680       0.00346006      -0.00452594       0.00000000
H       15.40520308       1.13556695       5.62924710       0.00770426       0.00590206      -0.01116173       0.00000000
C       16.28892025       3.13490739       5.64896700      -0.01362047      -0.02879782       0.01121068       0.00000000
C       16.29347110       1.75092156       5.85927563      -0.01559042       0.00976463       0.00214777       0.00000000
C       16.29490273       5.98523939       5.23047095      -0.00983693      -0.00420385       0.00889218       0.00000000
H       16.30122449       7.07996088       5.05373332       0.00495453      -0.02640229       0.02416603       0.00000000
H       17.18609031       1.24684177       6.27126203      -0.02746532      -0.00881501      -0.00823516       0.00000000
C       17.42839049       5.32829698       5.77926847       0.02587780      -0.01765248       0.00539147       0.00000000
C       17.44150377       3.94586130       5.96235922       0.01128794      -0.00099191       0.00171049       0.00000000
H       18.35585941       3.45838536       6.35431155       0.00036953      -0.00480041       0.02281055       0.00000000
H       18.38928632       7.09340035       6.20340893       0.00418755      -0.00878764      -0.00864358       0.00000000
N       18.60508806       6.08305554       6.13348565       0.00103919      -0.02887566       0.00436732       0.00000000
H       18.94792537       5.78303114       7.06374888       0.01595544       0.00040184      -0.01285987       0.00000000
Au      20.89188138       5.90687935       5.02539430      -0.32009054       0.00861636       0.04852856       0.00000000
Au      23.04217586       5.90663609       3.36261394      -0.20427460      -0.01736233      -0.27448656       0.00000000
Au      23.05462680       4.41484609       5.96983876      -0.15453143      -0.34759550       0.22583765       0.00000000
Au      23.05465039       7.39726971       5.96972264      -0.13789663       0.35913824       0.24574711       0.00000000
Au      25.29425676       0.00000000       1.70484486      -0.34589709      -0.06638953       0.02935178       0.00000000
Au      25.29425676       0.00000000       6.81937944      -0.37591010      -0.05014831       0.00594632       0.00000000
Au      25.29425676       0.00000000      11.93391402      -0.37267274      -0.03584564       0.03679321       0.00000000
Au      25.29425676       1.47643896       4.26211215      -0.30452522      -0.11148269       0.00020346       0.00000000
Au      25.29425676       1.47643896       9.37664673      -0.34680854      -0.01725928       0.03405343       0.00000000
Au      25.29425676       1.47643896      14.49118131      -0.35673452       0.08499291       0.01686407       0.00000000
Au      25.29425676       2.95287792       1.70484486      -0.33035436      -0.17508521      -0.05577338       0.00000000
Au      25.29425676       2.95287792       6.81937944      -0.56796912      -0.32772186       0.19089618       0.00000000
Au      25.29425676       2.95287792      11.93391402      -0.37698034      -0.00763216       0.03701199       0.00000000
Au      25.29425676       4.42931688       4.26211215       0.30277359      -0.58652349      -0.39379770       0.00000000
Au      25.29425676       4.42931688       9.37664673      -0.33588526       0.02307665       0.14733922       0.00000000
Au      25.29425676       4.42931688      14.49118131      -0.31210665      -0.02465957      -0.03463804       0.00000000
Au      25.29425676       5.90575584       1.70484486      -0.50671003       0.00572657      -0.31095788       0.00000000
Au      25.29425676       5.90575584       6.81937944       0.25580113       0.00123911       0.69246559       0.00000000
Au      25.29425676       5.90575584      11.93391402      -0.39071693       0.00231825       0.01373368       0.00000000
Au      25.29425676       7.38219480       4.26211215       0.30723278       0.58766850      -0.39464949       0.00000000
Au      25.29425676       7.38219480       9.37664673      -0.33273877      -0.02423558       0.14976109       0.00000000
Au      25.29425676       7.38219480      14.49118131      -0.31428796       0.02518999      -0.03558138       0.00000000
Au      25.29425676       8.85863376       1.70484486      -0.33396131       0.17122416      -0.05635065       0.00000000
Au      25.29425676       8.85863376       6.81937944      -0.56688066       0.32432155       0.18906996       0.00000000
Au      25.29425676       8.85863376      11.93391402      -0.37691636       0.00489063       0.03945700       0.00000000
Au      25.29425676      10.33507272       4.26211215      -0.30772911       0.11034984      -0.00217544       0.00000000
Au      25.29425676      10.33507272       9.37664673      -0.34675396       0.01391973       0.03453634       0.00000000
Au      25.29425676      10.33507272      14.49118131      -0.36094091      -0.08831717       0.01768553       0.00000000
Au      25.29425676      11.81151168       1.70484486      -0.34736365       0.06598089       0.02724773       0.00000000
Au      25.29425676      11.81151168       6.81937944      -0.37765100       0.05147028       0.00579377       0.00000000
Au      25.29425676      11.81151168      11.93391402      -0.37581269       0.03640959       0.03593679       0.00000000
Au      25.29425676      13.28795064       4.26211215      -0.37752269       0.00205355       0.00898547       0.00000000
Au      25.29425676      13.28795064       9.37664673      -0.33740403       0.00437684      -0.01260609       0.00000000
Au      25.29425676      13.28795064      14.49118131      -0.32218538       0.00286506      -0.02587612       0.00000000
Au      27.70527148       0.00000000       0.00000000       0.12369948       0.01338176       0.01529541       0.00000000
Au      27.70527148       0.00000000       5.11453458       0.14729954       0.00578368       0.01305266       0.00000000
Au      27.70527148       0.00000000      10.22906916       0.16408658       0.01235533      -0.02025270       0.00000000
Au      27.70527148       1.47643896       2.55726729       0.11758102       0.04134740       0.00170169       0.00000000
Au      27.70527148       1.47643896       7.67180187      -0.00344850       0.11350097      -0.06009104       0.00000000
Au      27.70527148       1.47643896      12.78633645       0.14127308       0.00445759       0.00671930       0.00000000
Au      27.70527148       2.95287792       0.00000000       0.14033394      -0.02032627      -0.00430912       0.00000000
Au      27.70527148       2.95287792       5.11453458       0.01011756       0.05693040      -0.05084611       0.00000000
Au      27.70527148       2.95287792      10.22906916       0.14945680      -0.00528064       0.00094426       0.00000000
Au      27.70527148       4.42931688       2.55726729       0.00311051      -0.00817605       0.09338594       0.00000000
Au      27.70527148       4.42931688       7.67180187       0.00247445       0.08992346      -0.00991934       0.00000000
Au      27.70527148       4.42931688      12.78633645       0.16219243      -0.01498549      -0.01851070       0.00000000
Au      27.70527148       5.90575584       0.00000000      -0.01920161       0.00330663       0.12821619       0.00000000
Au      27.70527148       5.90575584       5.11453458       0.06321277       0.00274472      -0.00506489       0.00000000
Au      27.70527148       5.90575584      10.22906916       0.17235500       0.00240732      -0.00396795       0.00000000
Au      27.70527148       7.38219480       2.55726729       0.00372180       0.00855004       0.09214495       0.00000000
Au      27.70527148       7.38219480       7.67180187      -0.00039534      -0.09190996      -0.00998292       0.00000000
Au      27.70527148       7.38219480      12.78633645       0.16268037       0.01581821      -0.01685375       0.00000000
Au      27.70527148       8.85863376       0.00000000       0.14255984       0.01924468      -0.00420703       0.00000000
Au      27.70527148       8.85863376       5.11453458       0.00892462      -0.06090869      -0.05220552       0.00000000
Au      27.70527148       8.85863376      10.22906916       0.14818223       0.00152119       0.00215894       0.00000000
Au      27.70527148      10.33507272       2.55726729       0.12017669      -0.04544145       0.00056739       0.00000000
Au      27.70527148      10.33507272       7.67180187      -0.00439509      -0.11559893      -0.06061576       0.00000000
Au      27.70527148      10.33507272      12.78633645       0.14399314      -0.00833917       0.00776003       0.00000000
Au      27.70527148      11.81151168       0.00000000       0.12715900      -0.01584206       0.01506930       0.00000000
Au      27.70527148      11.81151168       5.11453458       0.14853861      -0.00439676       0.01166518       0.00000000
Au      27.70527148      11.81151168      10.22906916       0.16501802      -0.01090145      -0.01872376       0.00000000
Au      27.70527148      13.28795064       2.55726729       0.11620176       0.00341996      -0.01976455       0.00000000
Au      27.70527148      13.28795064       7.67180187       0.17994749       0.00332683       0.03363316       0.00000000
Au      27.70527148      13.28795064      12.78633645       0.11701775       0.00300360      -0.00857872       0.00000000
Au      30.11628620       0.00000000       3.40968972      -0.07891095      -0.02150187       0.02469265       0.00000000
Au      30.11628620       0.00000000       8.52422430      -0.12808200      -0.00361296       0.02217174       0.00000000
Au      30.11628620       0.00000000      13.63875888      -0.06349256       0.01702960      -0.01755154       0.00000000
Au      30.11628620       1.47643896       0.85242243      -0.07761649       0.01568707      -0.03841444       0.00000000
Au      30.11628620       1.47643896       5.96695701      -0.10461406       0.00208919      -0.02861122       0.00000000
Au      30.11628620       1.47643896      11.08149159      -0.10313903      -0.00283221       0.03162685       0.00000000
Au      30.11628620       2.95287792       3.40968972      -0.06495395      -0.02524148       0.03243489       0.00000000
Au      30.11628620       2.95287792       8.52422430      -0.06035471      -0.01850392      -0.00327235       0.00000000
Au      30.11628620       2.95287792      13.63875888      -0.08997765      -0.00576310      -0.00224461       0.00000000
Au      30.11628620       4.42931688       0.85242243      -0.06580057       0.00891870      -0.01938830       0.00000000
Au      30.11628620       4.42931688       5.96695701      -0.00145933       0.02165510      -0.03856681       0.00000000
Au      30.11628620       4.42931688      11.08149159      -0.09418530       0.00534528       0.00829570       0.00000000
Au      30.11628620       5.90575584       3.40968972       0.01081992       0.00053412       0.04348927       0.00000000
Au      30.11628620       5.90575584       8.52422430      -0.04763022       0.00388544       0.02907721       0.00000000
Au      30.11628620       5.90575584      13.63875888      -0.09835866       0.00178704       0.03879949       0.00000000
Au      30.11628620       7.38219480       0.85242243      -0.06760152      -0.01173005      -0.01697517       0.00000000
Au      30.11628620       7.38219480       5.96695701      -0.00255825      -0.02029984      -0.03736164       0.00000000
Au      30.11628620       7.38219480      11.08149159      -0.09773225      -0.00530691       0.00478746       0.00000000
Au      30.11628620       8.85863376       3.40968972      -0.06532396       0.02471032       0.03488864       0.00000000
Au      30.11628620       8.85863376       8.52422430      -0.06316465       0.01628044      -0.00252285       0.00000000
Au      30.11628620       8.85863376      13.63875888      -0.08861052       0.00163057      -0.00403177       0.00000000
Au      30.11628620      10.33507272       0.85242243      -0.07398680      -0.01680025      -0.03871923       0.00000000
Au      30.11628620      10.33507272       5.96695701      -0.10541039      -0.00593142      -0.02726561       0.00000000
Au      30.11628620      10.33507272      11.08149159      -0.10128989       0.00132226       0.02936625       0.00000000
Au      30.11628620      11.81151168       3.40968972      -0.07520178       0.02156046       0.02763000       0.00000000
Au      30.11628620      11.81151168       8.52422430      -0.12625736       0.00187957       0.01925873       0.00000000
Au      30.11628620      11.81151168      13.63875888      -0.06151532      -0.01461582      -0.01806833       0.00000000
Au      30.11628620      13.28795064       0.85242243      -0.05077564       0.00400154       0.01441190       0.00000000
Au      30.11628620      13.28795064       5.96695701      -0.12926332       0.00265516      -0.03315452       0.00000000
Au      30.11628620      13.28795064      11.08149159      -0.09395718       0.00152282       0.00216973       0.00000000
Au      32.52730093       0.00000000       1.70484486       0.05760597      -0.03319969      -0.03437918       0.00000000
Au      32.52730093       0.00000000       6.81937944       0.06299685       0.00322226       0.01058088       0.00000000
Au      32.52730093       0.00000000      11.93391402       0.08872920       0.02939153      -0.00292938       0.00000000
Au      32.52730093       1.47643896       4.26211215       0.08383153       0.02740065       0.03660971       0.00000000
Au      32.52730093       1.47643896       9.37664673       0.08450937      -0.01335743      -0.01612094       0.00000000
Au      32.52730093       1.47643896      14.49118131       0.08966061       0.01782638      -0.00923942       0.00000000
Au      32.52730093       2.95287792       1.70484486       0.06218080      -0.00275043      -0.01450392       0.00000000