152
Lattice="34.938315661486385 0.0 0.0 0.0 11.81151167 0.0 0.0 0.0 10.22906917" Properties=species:S:1:pos:R:3 i=56 E=-4582.6172793001 pbc="T T T"
Au       0.00000000       0.00000000       0.00000000
Au       0.00000000       1.47643896       2.55726729
Au       0.00000000       2.95287792       0.00000000
Au       0.00000000       4.42931688       2.55726729
Au       0.00000000       5.90575584       0.00000000
Au       0.00000000       7.38219480       2.55726729
Au       0.00000000       8.85863375       0.00000000
Au       0.00000000      10.33507271       2.55726729
Au       0.00000000       0.00000000       5.11453458
Au       0.00000000       1.47643896       7.67180187
Au       0.00000000       2.95287792       5.11453458
Au       0.00000000       4.42931688       7.67180187
Au       0.00000000       5.90575584       5.11453458
Au       0.00000000       7.38219480       7.67180187
Au       0.00000000       8.85863375       5.11453458
Au       0.00000000      10.33507271       7.67180187
Au       2.41101472       0.00000000       3.40968972
Au       2.41101472       1.47643896       0.85242243
Au       2.41101472       2.95287792       3.40968972
Au       2.41101472       4.42931688       0.85242243
Au       2.41101472       5.90575584       3.40968972
Au       2.41101472       7.38219480       0.85242243
Au       2.41101472       8.85863375       3.40968972
Au       2.41101472      10.33507271       0.85242243
Au       2.41101472       0.00000000       8.52422430
Au       2.41101472       1.47643896       5.96695701
Au       2.41101472       2.95287792       8.52422430
Au       2.41101472       4.42931688       5.96695701
Au       2.41101472       5.90575584       8.52422430
Au       2.41101472       7.38219480       5.96695701
Au       2.41101472       8.85863375       8.52422430
Au       2.41101472      10.33507271       5.96695701
Au       4.82202945       0.00000000       1.70484486
Au       4.82202945       1.47643896       4.26211215
Au       4.82202945       2.95287792       1.70484486
Au       4.82202945       4.42931688       4.26211215
Au       4.82202945       5.90575584       1.70484486
Au       4.82202945       7.38219480       4.26211215
Au       4.82202945       8.85863375       1.70484486
Au       4.82202945      10.33507271       4.26211215
Au       4.82202945       0.00000000       6.81937944
Au       4.82202945       1.47643896       9.37664674
Au       4.82202945       2.95287792       6.81937944
Au       4.82202945       4.42931688       9.37664674
Au       4.82202945       5.90575584       6.81937944
Au       4.82202945       7.38219480       9.37664674
Au       4.82202945       8.85863375       6.81937944
Au       4.82202945      10.33507271       9.37664674
Au       7.23304417       0.00000000       0.00000000
Au       7.23304417       1.47643896       2.55726729
Au       7.23304417       2.95287792       0.00000000
Au       7.23304417       4.42931688       2.55726729
Au       7.23304417       5.90575584       0.00000000
Au       7.23304417       7.38219480       2.55726729
Au       7.23304417       8.85863375       0.00000000
Au       7.23304417      10.33507271       2.55726729
Au       7.23304417       0.00000000       5.11453458
Au       7.23304417       1.47643896       7.67180187
Au       7.23304417       2.95287792       5.11453458
Au       7.23304417       4.42931688       7.67180187
Au       7.23304417       5.90575584       5.11453458
Au       7.23304417       7.38219480       7.67180187
Au       7.23304417       8.85863375       5.11453458
Au       7.23304417      10.33507271       7.67180187
Au       9.48293454       5.90572980       3.40660837
Au       9.47463717       4.42675425       5.97752098
Au       9.47328657       7.38586852       5.97751591
Au      11.66415507       5.90717847       5.19182162
H       13.72799731       5.37174393       3.41649337
H       14.22322484       6.84447190       3.98805731
N       14.04990359       5.87310587       4.24477647
C       15.19178260       5.24635444       4.83232045
H       14.29253785       3.28205003       4.78020192
H       16.32194142       7.07994721       5.05087157
C       15.17416058       3.86262910       5.05144662
C       16.30973187       6.00035677       5.21711831
C       16.28413300       3.24747934       5.62928560
C       17.41653549       5.37240365       5.80784071
H       16.27395291       2.17021302       5.79222335
C       17.40648891       3.98468692       6.00398357
H       18.27739525       3.49179372       6.43635858
N       18.57574225       6.11918847       6.16798121
H       18.96263955       5.82254972       7.06372878
H       18.41282226       7.12494176       6.19525015
Au      20.89188138       5.90687935       5.02539430
Au      23.04217586       5.90663609       3.36261394
Au      23.05462680       4.41484609       5.96983876
Au      23.05465039       7.39726971       5.96972264
Au      25.29425676       0.00000000       1.70484486
Au      25.29425676       1.47643896       4.26211215
Au      25.29425676       2.95287792       1.70484486
Au      25.29425676       4.42931688       4.26211215
Au      25.29425676       5.90575584       1.70484486
Au      25.29425676       7.38219480       4.26211215
Au      25.29425676       8.85863375       1.70484486
Au      25.29425676      10.33507271       4.26211215
Au      25.29425676       0.00000000       6.81937944
Au      25.29425676       1.47643896       9.37664674
Au      25.29425676       2.95287792       6.81937944
Au      25.29425676       4.42931688       9.37664674
Au      25.29425676       5.90575584       6.81937944
Au      25.29425676       7.38219480       9.37664674
Au      25.29425676       8.85863375       6.81937944
Au      25.29425676      10.33507271       9.37664674
Au      27.70527148       0.00000000       0.00000000
Au      27.70527148       1.47643896       2.55726729
Au      27.70527148       2.95287792       0.00000000
Au      27.70527148       4.42931688       2.55726729
Au      27.70527148       5.90575584       0.00000000
Au      27.70527148       7.38219480       2.55726729
Au      27.70527148       8.85863375       0.00000000
Au      27.70527148      10.33507271       2.55726729
Au      27.70527148       0.00000000       5.11453458
Au      27.70527148       1.47643896       7.67180187
Au      27.70527148       2.95287792       5.11453458
Au      27.70527148       4.42931688       7.67180187
Au      27.70527148       5.90575584       5.11453458
Au      27.70527148       7.38219480       7.67180187
Au      27.70527148       8.85863375       5.11453458
Au      27.70527148      10.33507271       7.67180187
Au      30.11628621       0.00000000       3.40968972
Au      30.11628621       1.47643896       0.85242243
Au      30.11628621       2.95287792       3.40968972
Au      30.11628621       4.42931688       0.85242243
Au      30.11628621       5.90575584       3.40968972
Au      30.11628621       7.38219480       0.85242243
Au      30.11628621       8.85863375       3.40968972
Au      30.11628621      10.33507271       0.85242243
Au      30.11628621       0.00000000       8.52422430
Au      30.11628621       1.47643896       5.96695701
Au      30.11628621       2.95287792       8.52422430
Au      30.11628621       4.42931688       5.96695701
Au      30.11628621       5.90575584       8.52422430
Au      30.11628621       7.38219480       5.96695701
Au      30.11628621       8.85863375       8.52422430
Au      30.11628621      10.33507271       5.96695701
Au      32.52730093       0.00000000       1.70484486
Au      32.52730093       1.47643896       4.26211215
Au      32.52730093       2.95287792       1.70484486
Au      32.52730093       4.42931688       4.26211215
Au      32.52730093       5.90575584       1.70484486
Au      32.52730093       7.38219480       4.26211215
Au      32.52730093       8.85863375       1.70484486
Au      32.52730093      10.33507271       4.26211215
Au      32.52730093       0.00000000       6.81937944
Au      32.52730093       1.47643896       9.37664674
Au      32.52730093       2.95287792       6.81937944
Au      32.52730093       4.42931688       9.37664674
Au      32.52730093       5.90575584       6.81937944
Au      32.52730093       7.38219480       9.37664674
Au      32.52730093       8.85863375       6.81937944
Au      32.52730093      10.33507271       9.37664674
