264
Lattice="36.838445 0.0 0.0 0.0 14.76439 0.0 0.0 0.0 15.343604" Properties=species:S:1:pos:R:3:initial_magmoms:R:1:forces:R:3:magmoms:R:1 energy=-619.035506 dipole="83.34942 76.510262 -27.45698" pbc="T T T"
Au       1.20550700       0.73821900       0.22515600       0.00000000      -0.09432000       0.00045000       0.02215000       0.00000000
Au       1.20550700       0.73821900       5.33969000       0.00000000      -0.08908000       0.00095000      -0.03333000       0.00000000
Au       1.20550700       0.73821900      10.45422500       0.00000000      -0.07843000      -0.02644000       0.00782000       0.00000000
Au       1.20550700       2.21465800       2.78242300       0.00000000      -0.07251000       0.00207000      -0.00665000       0.00000000
Au       1.20550700       2.21465800       7.89695800       0.00000000      -0.06907000       0.04200000      -0.02086000       0.00000000
Au       1.20550700       2.21465800      13.01149200       0.00000000      -0.07993000       0.03230000       0.00118000       0.00000000
Au       1.20550700       3.69109700       0.22515600       0.00000000      -0.06604000      -0.01092000      -0.01982000       0.00000000
Au       1.20550700       3.69109700       5.33969000       0.00000000      -0.09237000      -0.03009000      -0.00462000       0.00000000
Au       1.20550700       3.69109700      10.45422500       0.00000000      -0.05889000       0.00307000       0.01635000       0.00000000
Au       1.20550700       5.16753600       2.78242300       0.00000000      -0.05756000       0.01376000       0.00912000       0.00000000
Au       1.20550700       5.16753600       7.89695800       0.00000000      -0.05427000      -0.02265000       0.04433000       0.00000000
Au       1.20550700       5.16753600      13.01149200       0.00000000      -0.04594000      -0.01908000       0.02115000       0.00000000
Au       1.20550700       6.64397500       0.22515600       0.00000000      -0.04741000       0.00288000       0.00578000       0.00000000
Au       1.20550700       6.64397500       5.33969000       0.00000000      -0.10445000       0.00172000      -0.02668000       0.00000000
Au       1.20550700       6.64397500      10.45422500       0.00000000      -0.03080000      -0.00074000       0.01029000       0.00000000
Au       1.20550700       8.12041400       2.78242300       0.00000000      -0.05690000      -0.01274000       0.01112000       0.00000000
Au       1.20550700       8.12041400       7.89695800       0.00000000      -0.05287000       0.02002000       0.03956000       0.00000000
Au       1.20550700       8.12041400      13.01149200       0.00000000      -0.04804000       0.01260000       0.02137000       0.00000000
Au       1.20550700       9.59685300       0.22515600       0.00000000      -0.06621000       0.01017000      -0.01676000       0.00000000
Au       1.20550700       9.59685300       5.33969000       0.00000000      -0.08609000       0.03215000      -0.00875000       0.00000000
Au       1.20550700       9.59685300      10.45422500       0.00000000      -0.06200000      -0.00396000       0.01523000       0.00000000
Au       1.20550700      11.07329200       2.78242300       0.00000000      -0.06916000       0.00001000      -0.00551000       0.00000000
Au       1.20550700      11.07329200       7.89695800       0.00000000      -0.06875000      -0.04314000      -0.02296000       0.00000000
Au       1.20550700      11.07329200      13.01149200       0.00000000      -0.08124000      -0.02868000       0.00675000       0.00000000
Au       1.20550700      12.54973100       0.22515600       0.00000000      -0.09502000      -0.00242000       0.02741000       0.00000000
Au       1.20550700      12.54973100       5.33969000       0.00000000      -0.08941000      -0.00457000      -0.03471000       0.00000000
Au       1.20550700      12.54973100      10.45422500       0.00000000      -0.07983000       0.02789000       0.00485000       0.00000000
Au       1.20550700      14.02617000       2.78242300       0.00000000      -0.05771000      -0.00216000       0.00864000       0.00000000
Au       1.20550700      14.02617000       7.89695800       0.00000000      -0.05989000       0.00350000       0.04374000       0.00000000
Au       1.20550700      14.02617000      13.01149200       0.00000000      -0.12427000       0.00252000      -0.01467000       0.00000000
Au       3.61652200       0.73821900       3.63484600       0.00000000       0.13124000      -0.02164000       0.01867000       0.00000000
Au       3.61652200       0.73821900       8.74938000       0.00000000       0.06066000      -0.01028000       0.00030000       0.00000000
Au       3.61652200       0.73821900      13.86391500       0.00000000       0.07164000       0.01696000       0.00532000       0.00000000
Au       3.61652200       2.21465800       1.07757800       0.00000000       0.11302000       0.00424000      -0.03446000       0.00000000
Au       3.61652200       2.21465800       6.19211300       0.00000000       0.10068000      -0.00750000      -0.00858000       0.00000000
Au       3.61652200       2.21465800      11.30664800       0.00000000       0.06027000       0.01167000       0.03988000       0.00000000
Au       3.61652200       3.69109700       3.63484600       0.00000000       0.09183000      -0.01194000       0.02025000       0.00000000
Au       3.61652200       3.69109700       8.74938000       0.00000000       0.06727000      -0.01503000      -0.00642000       0.00000000
Au       3.61652200       3.69109700      13.86391500       0.00000000       0.09067000       0.00085000      -0.00075000       0.00000000
Au       3.61652200       5.16753600       1.07757800       0.00000000       0.05240000      -0.02034000      -0.03594000       0.00000000
Au       3.61652200       5.16753600       6.19211300       0.00000000      -0.00221000       0.01821000      -0.01777000       0.00000000
Au       3.61652200       5.16753600      11.30664800       0.00000000       0.12658000       0.02322000      -0.01001000       0.00000000
Au       3.61652200       6.64397500       3.63484600       0.00000000      -0.01278000       0.00242000       0.04805000       0.00000000
Au       3.61652200       6.64397500       8.74938000       0.00000000       0.07533000      -0.00018000       0.01292000       0.00000000
Au       3.61652200       6.64397500      13.86391500       0.00000000       0.08522000       0.00082000       0.01840000       0.00000000
Au       3.61652200       8.12041400       1.07757800       0.00000000       0.05101000       0.01980000      -0.03630000       0.00000000
Au       3.61652200       8.12041400       6.19211300       0.00000000      -0.00747000      -0.02199000      -0.01410000       0.00000000
Au       3.61652200       8.12041400      11.30664800       0.00000000       0.12390000      -0.02707000      -0.00955000       0.00000000
Au       3.61652200       9.59685300       3.63484600       0.00000000       0.08993000       0.01483000       0.01748000       0.00000000
Au       3.61652200       9.59685300       8.74938000       0.00000000       0.06394000       0.01558000      -0.00767000       0.00000000
Au       3.61652200       9.59685300      13.86391500       0.00000000       0.08909000      -0.00175000       0.00308000       0.00000000
Au       3.61652200      11.07329200       1.07757800       0.00000000       0.11566000      -0.00169000      -0.03091000       0.00000000
Au       3.61652200      11.07329200       6.19211300       0.00000000       0.10080000       0.01226000      -0.01429000       0.00000000
Au       3.61652200      11.07329200      11.30664800       0.00000000       0.05735000      -0.01114000       0.03759000       0.00000000
Au       3.61652200      12.54973100       3.63484600       0.00000000       0.13444000       0.01637000       0.01908000       0.00000000
Au       3.61652200      12.54973100       8.74938000       0.00000000       0.05756000       0.01009000       0.00126000       0.00000000
Au       3.61652200      12.54973100      13.86391500       0.00000000       0.07058000      -0.01683000       0.00602000       0.00000000
Au       3.61652200      14.02617000       1.07757800       0.00000000       0.10008000      -0.00176000      -0.01743000       0.00000000
Au       3.61652200      14.02617000       6.19211300       0.00000000       0.10181000      -0.00161000      -0.02911000       0.00000000
Au       3.61652200      14.02617000      11.30664800       0.00000000       0.06326000       0.00427000      -0.00666000       0.00000000
Au       6.02753700       0.73821900       1.93000100       0.00000000      -0.16885000      -0.01613000      -0.01168000       0.00000000
Au       6.02753700       0.73821900       7.04453500       0.00000000      -0.13200000       0.02824000       0.00124000       0.00000000
Au       6.02753700       0.73821900      12.15907000       0.00000000      -0.12574000      -0.01050000       0.00333000       0.00000000
Au       6.02753700       2.21465800       4.48726800       0.00000000      -0.03032000       0.11127000       0.07040000       0.00000000
Au       6.02753700       2.21465800       9.60180300       0.00000000      -0.10327000       0.05170000      -0.00646000       0.00000000
Au       6.02753700       2.21465800      14.71633700       0.00000000      -0.13104000       0.01950000       0.01399000       0.00000000
Au       6.02753700       3.69109700       1.93000100       0.00000000       0.01059000       0.10556000       0.04026000       0.00000000
Au       6.02753700       3.69109700       7.04453500       0.00000000      -0.15720000      -0.02434000       0.00585000       0.00000000
Au       6.02753700       3.69109700      12.15907000       0.00000000      -0.15566000      -0.02923000       0.01629000       0.00000000
Au       6.02753700       5.16753600       4.48726800       0.00000000       0.01045000       0.08862000       0.04110000       0.00000000
Au       6.02753700       5.16753600       9.60180300       0.00000000      -0.00254000       0.00876000      -0.12645000       0.00000000
Au       6.02753700       5.16753600      14.71633700       0.00000000      -0.14686000      -0.01039000      -0.00977000       0.00000000
Au       6.02753700       6.64397500       1.93000100       0.00000000      -0.15405000       0.00007000      -0.02417000       0.00000000
Au       6.02753700       6.64397500       7.04453500       0.00000000       0.02134000       0.00217000      -0.08515000       0.00000000
Au       6.02753700       6.64397500      12.15907000       0.00000000      -0.15879000       0.00088000       0.00931000       0.00000000
Au       6.02753700       8.12041400       4.48726800       0.00000000       0.01105000      -0.08843000       0.03805000       0.00000000
Au       6.02753700       8.12041400       9.60180300       0.00000000      -0.00115000      -0.01198000      -0.12838000       0.00000000
Au       6.02753700       8.12041400      14.71633700       0.00000000      -0.14823000       0.00780000      -0.00777000       0.00000000
Au       6.02753700       9.59685300       1.93000100       0.00000000       0.01402000      -0.10287000       0.04239000       0.00000000
Au       6.02753700       9.59685300       7.04453500       0.00000000      -0.15924000       0.02395000       0.00572000       0.00000000
Au       6.02753700       9.59685300      12.15907000       0.00000000      -0.16046000       0.02919000       0.01578000       0.00000000
Au       6.02753700      11.07329200       4.48726800       0.00000000      -0.02018000      -0.11227000       0.07241000       0.00000000
Au       6.02753700      11.07329200       9.60180300       0.00000000      -0.10444000      -0.04956000      -0.00663000       0.00000000
Au       6.02753700      11.07329200      14.71633700       0.00000000      -0.13076000      -0.01949000       0.01542000       0.00000000
Au       6.02753700      12.54973100       1.93000100       0.00000000      -0.16410000       0.01433000      -0.01237000       0.00000000
Au       6.02753700      12.54973100       7.04453500       0.00000000      -0.12747000      -0.02948000      -0.00205000       0.00000000
Au       6.02753700      12.54973100      12.15907000       0.00000000      -0.12760000       0.01002000       0.00491000       0.00000000
Au       6.02753700      14.02617000       4.48726800       0.00000000      -0.13233000       0.00041000      -0.01924000       0.00000000
Au       6.02753700      14.02617000       9.60180300       0.00000000      -0.11190000       0.00104000      -0.00461000       0.00000000
Au       6.02753700      14.02617000      14.71633700       0.00000000      -0.14849000       0.00262000       0.01410000       0.00000000
Au       8.43855200       0.73821900       0.22515600       0.00000000       0.37056000      -0.05561000       0.03337000       0.00000000
Au       8.43855200       0.73821900       5.33969000       0.00000000       0.35261000       0.00751000       0.01015000       0.00000000
Au       8.43855200       0.73821900      10.45422500       0.00000000       0.30461000      -0.00888000       0.02106000       0.00000000
Au       8.43855200       2.21465800       2.78242300       0.00000000       0.32115000      -0.01210000      -0.05798000       0.00000000
Au       8.43855200       2.21465800       7.89695800       0.00000000       0.38566000      -0.12826000      -0.01053000       0.00000000
Au       8.43855200       2.21465800      13.01149200       0.00000000       0.34294000       0.05802000      -0.05001000       0.00000000
Au       8.43855200       3.69109700       0.22515600       0.00000000       0.32409000      -0.00939000      -0.02802000       0.00000000
Au       8.43855200       3.69109700       5.33969000       0.00000000       0.36349000      -0.54479000      -0.06369000       0.00000000
Au       8.43855200       3.69109700      10.45422500       0.00000000       0.33996000      -0.02238000      -0.00072000       0.00000000
Au       8.43855200       5.16753600       2.78242300       0.00000000       0.34534000      -0.28834000      -0.37259000       0.00000000
Au       8.43855200       5.16753600       7.89695800       0.00000000       0.26578000      -0.20069000       0.46774000       0.00000000
Au       8.43855200       5.16753600      13.01149200       0.00000000       0.36751000       0.02170000      -0.01461000       0.00000000
Au       8.43855200       6.64397500       0.22515600       0.00000000       0.37360000       0.00156000      -0.12451000       0.00000000
Au       8.43855200       6.64397500       5.33969000       0.00000000      -0.90033000      -0.00630000      -0.01155000       0.00000000
Au       8.43855200       6.64397500      10.45422500       0.00000000       0.34396000      -0.00175000       0.02871000       0.00000000
Au       8.43855200       8.12041400       2.78242300       0.00000000       0.35311000       0.28147000      -0.37262000       0.00000000
Au       8.43855200       8.12041400       7.89695800       0.00000000       0.26585000       0.19807000       0.47061000       0.00000000
Au       8.43855200       8.12041400      13.01149200       0.00000000       0.35922000      -0.02451000      -0.01422000       0.00000000
Au       8.43855200       9.59685300       0.22515600       0.00000000       0.32342000       0.01212000      -0.03350000       0.00000000
Au       8.43855200       9.59685300       5.33969000       0.00000000       0.37993000       0.55151000      -0.06455000       0.00000000
Au       8.43855200       9.59685300      10.45422500       0.00000000       0.32460000       0.02793000      -0.00031000       0.00000000
Au       8.43855200      11.07329200       2.78242300       0.00000000       0.32289000       0.01297000      -0.06112000       0.00000000
Au       8.43855200      11.07329200       7.89695800       0.00000000       0.38573000       0.12698000      -0.00667000       0.00000000
Au       8.43855200      11.07329200      13.01149200       0.00000000       0.33973000      -0.05596000      -0.04944000       0.00000000
Au       8.43855200      12.54973100       0.22515600       0.00000000       0.37225000       0.05150000       0.03405000       0.00000000
Au       8.43855200      12.54973100       5.33969000       0.00000000       0.35145000      -0.00746000       0.01387000       0.00000000
Au       8.43855200      12.54973100      10.45422500       0.00000000       0.30205000       0.00546000       0.02318000       0.00000000
Au       8.43855200      14.02617000       2.78242300       0.00000000       0.36645000       0.00543000      -0.04001000       0.00000000
Au       8.43855200      14.02617000       7.89695800       0.00000000       0.33370000       0.00429000      -0.04376000       0.00000000
Au       8.43855200      14.02617000      13.01149200       0.00000000       0.37807000       0.00006000      -0.04798000       0.00000000
Au      10.67879400       8.12408800       6.20267200       0.00000000       0.11848000       0.20988000       0.11049000       0.00000000
Au      10.68014500       5.16497400       6.20267700       0.00000000       0.16808000      -0.19718000       0.10317000       0.00000000
Au      10.68844200       6.64394900       3.63176400       0.00000000       0.05280000      -0.00232000      -0.31716000       0.00000000
Au      12.86966200       6.64539800       5.41697800       0.00000000       0.11181000       0.15864000       0.04331000       0.00000000
N       15.15478800       6.63559200       4.70545100       0.00000000       0.06107000       0.35912000       0.31568000       0.00000000
H       15.44795100       7.47036100       4.15859900       0.00000000      -0.05512000      -0.09580000       0.03002000       0.00000000
H       14.89279900       5.89944200       4.02611300       0.00000000       0.06156000      -0.07584000      -0.11667000       0.00000000
H       15.86221500       5.43310400       6.31114600       0.00000000       0.14226000      -0.09881000      -0.06401000       0.00000000
C       16.20086000       6.19919800       5.58578200       0.00000000      -0.34840000      -0.07380000       0.04481000       0.00000000
C       17.47802100       6.71523500       5.59156000       0.00000000       0.06672000      -0.02788000       0.00332000       0.00000000
H       17.72328900       7.51758300       4.86638000       0.00000000      -0.05883000       0.13110000      -0.14615000       0.00000000
H       18.35143300       5.42743200       7.09908100       0.00000000       0.03171000      -0.14685000       0.11831000       0.00000000
C       18.55199200       6.26182200       6.40265600       0.00000000       0.06070000       0.18327000       0.07376000       0.00000000
C       19.85162300       6.80830300       6.35722700       0.00000000       0.08093000      -0.20602000       0.10275000       0.00000000
H       20.02829400       7.68542400       5.70163500       0.00000000      -0.07438000       0.09701000      -0.15488000       0.00000000
H       20.92699100       5.46821200       7.70714400       0.00000000       0.00082000      -0.20906000       0.12515000       0.00000000
C       20.95679400       6.36949400       7.07918900       0.00000000      -0.12391000       0.19102000      -0.13227000       0.00000000
N       22.22051500       6.97271200       6.94290700       0.00000000      -0.17941000       0.04631000       0.07452000       0.00000000
H       22.15614200       7.96334100       6.66030800       0.00000000       0.04495000       0.05832000       0.09123000       0.00000000
H       22.82615400       6.88182500       7.77005700       0.00000000       0.12135000       0.01024000       0.04965000       0.00000000
Au      23.99751800       6.64509900       5.25055000       0.00000000       0.00335000      -0.05475000      -0.04720000       0.00000000
Au      26.14781300       6.64485600       3.58777000       0.00000000      -0.26642000      -0.03927000      -0.31401000       0.00000000
Au      26.16026400       5.15306600       6.19499500       0.00000000      -0.05736000      -0.39928000       0.23955000       0.00000000
Au      26.16028700       8.13548900       6.19487900       0.00000000      -0.10138000       0.39734000       0.27558000       0.00000000
Au      28.39989400       0.73821900       1.93000100       0.00000000      -0.33349000      -0.06277000       0.03071000       0.00000000
Au      28.39989400       0.73821900       7.04453500       0.00000000      -0.37256000      -0.04763000       0.00873000       0.00000000
Au      28.39989400       0.73821900      12.15907000       0.00000000      -0.38581000      -0.04800000       0.02460000       0.00000000
Au      28.39989400       2.21465800       4.48726800       0.00000000      -0.30736000      -0.11210000       0.00153000       0.00000000
Au      28.39989400       2.21465800       9.60180300       0.00000000      -0.33475000      -0.01195000       0.04292000       0.00000000
Au      28.39989400       2.21465800      14.71633700       0.00000000      -0.35510000       0.08017000       0.03225000       0.00000000
Au      28.39989400       3.69109700       1.93000100       0.00000000      -0.32272000      -0.17058000      -0.06353000       0.00000000
Au      28.39989400       3.69109700       7.04453500       0.00000000      -0.56190000      -0.32911000       0.18285000       0.00000000
Au      28.39989400       3.69109700      12.15907000       0.00000000      -0.37262000       0.00783000       0.02693000       0.00000000
Au      28.39989400       5.16753600       4.48726800       0.00000000       0.29908000      -0.58797000      -0.39584000       0.00000000
Au      28.39989400       5.16753600       9.60180300       0.00000000      -0.30821000       0.01179000       0.14739000       0.00000000
Au      28.39989400       5.16753600      14.71633700       0.00000000      -0.31760000      -0.02715000      -0.04230000       0.00000000
Au      28.39989400       6.64397500       1.93000100       0.00000000      -0.44749000      -0.00153000      -0.30545000       0.00000000
Au      28.39989400       6.64397500       7.04453500       0.00000000       0.26116000      -0.00097000       0.69777000       0.00000000
Au      28.39989400       6.64397500      12.15907000       0.00000000      -0.40762000       0.00045000       0.02574000       0.00000000
Au      28.39989400       8.12041400       4.48726800       0.00000000       0.31530000       0.58828000      -0.40188000       0.00000000
Au      28.39989400       8.12041400       9.60180300       0.00000000      -0.31093000      -0.01467000       0.15169000       0.00000000
Au      28.39989400       8.12041400      14.71633700       0.00000000      -0.31225000       0.02720000      -0.03800000       0.00000000
Au      28.39989400       9.59685300       1.93000100       0.00000000      -0.32106000       0.17419000      -0.06319000       0.00000000
Au      28.39989400       9.59685300       7.04453500       0.00000000      -0.56986000       0.32621000       0.18322000       0.00000000
Au      28.39989400       9.59685300      12.15907000       0.00000000      -0.37069000      -0.00066000       0.02635000       0.00000000
Au      28.39989400      11.07329200       4.48726800       0.00000000      -0.31586000       0.11150000      -0.00220000       0.00000000
Au      28.39989400      11.07329200       9.60180300       0.00000000      -0.33207000       0.01245000       0.04260000       0.00000000
Au      28.39989400      11.07329200      14.71633700       0.00000000      -0.35853000      -0.08287000       0.02580000       0.00000000
Au      28.39989400      12.54973100       1.93000100       0.00000000      -0.34175000       0.05950000       0.03144000       0.00000000
Au      28.39989400      12.54973100       7.04453500       0.00000000      -0.37067000       0.04610000       0.01135000       0.00000000
Au      28.39989400      12.54973100      12.15907000       0.00000000      -0.38380000       0.04111000       0.02856000       0.00000000
Au      28.39989400      14.02617000       4.48726800       0.00000000      -0.36999000       0.00327000      -0.00287000       0.00000000
Au      28.39989400      14.02617000       9.60180300       0.00000000      -0.36079000       0.00234000      -0.00914000       0.00000000
Au      28.39989400      14.02617000      14.71633700       0.00000000      -0.31039000       0.00238000      -0.03459000       0.00000000
Au      30.81090800       0.73821900       0.22515600       0.00000000       0.12051000       0.01870000       0.00538000       0.00000000
Au      30.81090800       0.73821900       5.33969000       0.00000000       0.14760000       0.00649000       0.00961000       0.00000000
Au      30.81090800       0.73821900      10.45422500       0.00000000       0.16124000       0.00970000      -0.01531000       0.00000000
Au      30.81090800       2.21465800       2.78242300       0.00000000       0.12341000       0.05325000       0.00247000       0.00000000
Au      30.81090800       2.21465800       7.89695800       0.00000000      -0.00895000       0.11995000      -0.06640000       0.00000000
Au      30.81090800       2.21465800      13.01149200       0.00000000       0.12864000       0.00541000       0.00156000       0.00000000
Au      30.81090800       3.69109700       0.22515600       0.00000000       0.14601000      -0.02143000      -0.00300000       0.00000000
Au      30.81090800       3.69109700       5.33969000       0.00000000       0.00109000       0.06769000      -0.05223000       0.00000000
Au      30.81090800       3.69109700      10.45422500       0.00000000       0.14360000      -0.00836000       0.00039000       0.00000000
Au      30.81090800       5.16753600       2.78242300       0.00000000      -0.02123000       0.00841000       0.10308000       0.00000000
Au      30.81090800       5.16753600       7.89695800       0.00000000       0.00340000       0.09595000      -0.02239000       0.00000000
Au      30.81090800       5.16753600      13.01149200       0.00000000       0.15954000      -0.01535000      -0.01646000       0.00000000
Au      30.81090800       6.64397500       0.22515600       0.00000000      -0.02538000       0.00218000       0.13611000       0.00000000
Au      30.81090800       6.64397500       5.33969000       0.00000000       0.04625000      -0.00038000      -0.01636000       0.00000000
Au      30.81090800       6.64397500      10.45422500       0.00000000       0.17205000       0.00100000      -0.00019000       0.00000000
Au      30.81090800       8.12041400       2.78242300       0.00000000      -0.02129000      -0.01105000       0.10162000       0.00000000
Au      30.81090800       8.12041400       7.89695800       0.00000000       0.00285000      -0.09859000      -0.02457000       0.00000000
Au      30.81090800       8.12041400      13.01149200       0.00000000       0.16412000       0.01320000      -0.01771000       0.00000000
Au      30.81090800       9.59685300       0.22515600       0.00000000       0.14811000       0.01956000      -0.00520000       0.00000000
Au      30.81090800       9.59685300       5.33969000       0.00000000       0.00052000      -0.06492000      -0.05248000       0.00000000
Au      30.81090800       9.59685300      10.45422500       0.00000000       0.15141000       0.00779000       0.00187000       0.00000000
Au      30.81090800      11.07329200       2.78242300       0.00000000       0.11765000      -0.05048000       0.00136000       0.00000000
Au      30.81090800      11.07329200       7.89695800       0.00000000      -0.01063000      -0.12107000      -0.06574000       0.00000000
Au      30.81090800      11.07329200      13.01149200       0.00000000       0.13666000      -0.00402000       0.00518000       0.00000000
Au      30.81090800      12.54973100       0.22515600       0.00000000       0.11814000      -0.01863000       0.00747000       0.00000000
Au      30.81090800      12.54973100       5.33969000       0.00000000       0.14155000      -0.00842000       0.01053000       0.00000000
Au      30.81090800      12.54973100      10.45422500       0.00000000       0.16393000      -0.01019000      -0.01832000       0.00000000
Au      30.81090800      14.02617000       2.78242300       0.00000000       0.11764000      -0.00012000      -0.00750000       0.00000000
Au      30.81090800      14.02617000       7.89695800       0.00000000       0.17718000       0.00222000       0.03371000       0.00000000
Au      30.81090800      14.02617000      13.01149200       0.00000000       0.12041000       0.00031000      -0.00917000       0.00000000
Au      33.22192300       0.73821900       3.63484600       0.00000000      -0.07648000      -0.02063000       0.03190000       0.00000000
Au      33.22192300       0.73821900       8.74938000       0.00000000      -0.12902000      -0.00290000       0.01861000       0.00000000
Au      33.22192300       0.73821900      13.86391500       0.00000000      -0.06472000       0.01607000      -0.01572000       0.00000000
Au      33.22192300       2.21465800       1.07757800       0.00000000      -0.07734000       0.02490000      -0.03519000       0.00000000
Au      33.22192300       2.21465800       6.19211300       0.00000000      -0.10963000       0.01080000      -0.02710000       0.00000000
Au      33.22192300       2.21465800      11.30664800       0.00000000      -0.10258000       0.00377000       0.02756000       0.00000000
Au      33.22192300       3.69109700       3.63484600       0.00000000      -0.06381000      -0.01758000       0.03014000       0.00000000
Au      33.22192300       3.69109700       8.74938000       0.00000000      -0.07457000      -0.01493000       0.00045000       0.00000000
Au      33.22192300       3.69109700      13.86391500       0.00000000      -0.08556000       0.00207000      -0.00361000       0.00000000
Au      33.22192300       5.16753600       1.07757800       0.00000000      -0.08099000       0.01710000      -0.00371000       0.00000000