
  ___ ___ ___ _ _ _  
 |   |   |_  | | | | 
 | | | | | . | | | | 
 |__ |  _|___|_____|  25.1.0
 |___|_|             

User:   ajayaraj@nid006445
Date:   Sat Mar 29 21:02:23 2025
Arch:   aarch64
Pid:    40301
CWD:    /capstor/scratch/cscs/ajayaraj/qtpyt-tests/CNT_AGNR/unrelaxed/dft/device
Python: 3.11.9
gpaw:   /user-environment/env/gpaw/lib/python3.11/site-packages/gpaw
_gpaw:  /user-environment/env/gpaw/lib/python3.11/site-packages/
        _gpaw.cpython-311-aarch64-linux-gnu.so
ase:    /user-environment/env/gpaw/lib/python3.11/site-packages/ase (version 3.23.0)
numpy:  /user-environment/env/gpaw/lib/python3.11/site-packages/numpy (version 2.1.2)
scipy:  /user-environment/env/gpaw/lib/python3.11/site-packages/scipy (version 1.14.1)
libxc:  4.3.4
units:  Angstrom and eV
cores: 96
OpenMP: False
OMP_NUM_THREADS: 1

Input parameters:
  basis: {C: dzp,
          H: dzp}
  h: 0.2
  kpts: [1 1 1]
  mixer: {backend: pulay,
          beta: 0.02,
          method: separate,
          nmaxold: 5,
          weight: 100.0}
  mode: lcao
  occupations: {fixmagmom: False,
                name: fermi-dirac,
                width: 0.01}
  symmetry: {point_group: False,
             time_reversal: True}
  xc: PBE

System changes: positions, numbers, cell, pbc, initial_charges, initial_magmoms 

Initialize ...

species:
  C:
    name: Carbon
    id: 4aa54d4b901d75f77cc0ea3eec22967b
    Z: 6.0
    valence: 4
    core: 2
    charge: 0.0
    file: /users/ajayaraj/gpaw-setups-24.11.0/C.PBE.gz
    compensation charges: {type: gauss,
                           rc: 0.20,
                           lmax: 2}
    cutoffs: {filter: 1.14,
              core: 1.14}
    projectors:
      #              energy  rcut
      - 2s(2.00)   -13.751   0.635
      - 2p(2.00)    -5.284   0.635
      -  s          13.461   0.635
      -  p          21.927   0.635
      -  d           0.000   0.635
  
    # LCAO basis set for C:
    #   Name: dzp
    #   File: /users/ajayaraj/gpaw-setups-24.11.0/C.dzp.basis.gz
    #   Number of radial functions: 5
    #   Number of spherical harmonics: 13
    #     l=0, rc=5.5469 Bohr: 2s-sz confined orbital
    #     l=1, rc=6.6719 Bohr: 2p-sz confined orbital
    #     l=0, rc=3.0312 Bohr: 2s-dz split-valence wave
    #     l=1, rc=3.7500 Bohr: 2p-dz split-valence wave
    #     l=2, rc=6.6719 Bohr: d-type Gaussian polarization
    #   Number of RI-basis functions 0

  H:
    name: Hydrogen
    id: d65de229564ff8ea4db303e23b6d1ecf
    Z: 1.0
    valence: 1
    core: 0
    charge: 0.0
    file: /users/ajayaraj/gpaw-setups-24.11.0/H.PBE.gz
    compensation charges: {type: gauss,
                           rc: 0.15,
                           lmax: 2}
    cutoffs: {filter: 0.85,
              core: 0.53}
    projectors:
      #              energy  rcut
      - 1s(1.00)    -6.494   0.476
      -  s          20.717   0.476
      -  p           0.000   0.476
  
    # LCAO basis set for H:
    #   Name: dzp
    #   File: /users/ajayaraj/gpaw-setups-24.11.0/H.dzp.basis.gz
    #   Number of radial functions: 3
    #   Number of spherical harmonics: 5
    #     l=0, rc=6.4219 Bohr: 1s-sz confined orbital
    #     l=0, rc=3.6094 Bohr: 1s-dz split-valence wave
    #     l=1, rc=6.4219 Bohr: p-type Gaussian polarization
    #   Number of RI-basis functions 0

Reference energy: -1184626.959413  # eV

Spin-paired calculation

Convergence criteria:
 Maximum [total energy] change in last 3 cyles: 0.0005 eV / valence electron
 Maximum integral of absolute [dens]ity change: 0.0001 electrons / valence electron
 Maximum integral of absolute [eigenst]ate change: 4e-08 eV^2 / valence electron
 Maximum number of scf [iter]ations: 333
 (Square brackets indicate name in SCF output, whereas a 'c' in
 the SCF output indicates the quantity has converged.)

Symmetries present (total): 1

  ( 1  0  0)
  ( 0  1  0)
  ( 0  0  1)

1 k-point (Gamma)
1 k-point in the irreducible part of the Brillouin zone
       k-points in crystal coordinates                weights
   0:     0.00000000    0.00000000    0.00000000          1/1

Wave functions: LCAO
  Diagonalizer: Serial LAPACK
  Atomic Correction: dense with blas
  Data-type: float
 

Occupation numbers: Fermi-Dirac:
  width: 0.0100  # eV
 

Eigensolver
   LCAO using direct dense diagonalizer 

Densities:
  Coarse grid: 488*200*200 grid
  Fine grid: 976*400*400 grid
  Total Charge: 0.000000 

Density mixing:
  Method: separate
  Backend: pulay
  Linear mixing parameter: 0.02
  old densities: 5
  Damping of long wavelength oscillations: 100 

Hamiltonian:
  XC and Coulomb potentials evaluated on a 976*400*400 grid
  Using the PBE Exchange-Correlation functional
  Interpolation: tri-quintic (5. degree polynomial)
  Poisson solver: FastPoissonSolver using
    Stencil: 6*3+1=19 point O(h^6) finite-difference Laplacian
    FFT axes: [np.int64(0), np.int64(1), np.int64(2)]
    FST axes: []
 

XC parameters: PBE with 2 nearest neighbor stencil

Memory estimate:
  Process memory now: 369.44 MiB
  Calculator: 4010.35 MiB
    Density: 63.41 MiB
      Arrays: 40.54 MiB
      Localized functions: 7.28 MiB
      Mixer: 15.59 MiB
    Hamiltonian: 27.08 MiB
      Arrays: 26.50 MiB
      XC: 0.00 MiB
      Poisson: 0.00 MiB
      vbar: 0.58 MiB
    Wavefunctions: 3919.86 MiB
      C [qnM]: 327.69 MiB
      S, T [2 x qmm]: 3570.06 MiB
      P [aqMi]: 2.32 MiB
      BasisFunctions: 19.78 MiB
      Eigensolver: 0.00 MiB

Total number of cores used: 96
Domain decomposition: 8 x 4 x 3

Number of atoms: 1216
Number of atomic orbitals: 15296
Number of bands in calculation: 2808
Number of valence electrons: 4672
Bands to converge: occupied

... initialized

Initializing position-dependent things.

Density initialized from atomic densities
                          .------------------------------------------------------------------------------------------------------------------------------------------------------------------------------------------------------------------------------------------------.  
                         /|                                                                                                                                                                                                                                                |  
                        / |                                                                                                                                                                                                                                                |  
                       /  |                                                                                                                                                                                                                                                |  
                      /   |                                                                                                                                                                                                                                                |  
                     /    |                                                                                                                                                                                                                                                |  
                    /     |                                                                                                                                                                                                                                                |  
                   /      |                                                                                                                                                                                                                                                |  
                  /       |                                                                                                                                                                                                                                                |  
                 /        |                                                                                                                                                                                                                                                |  
                /         |                                                                                                                                                                                                                                                |  
               /          |                                                                                                                                                                                                                                                |  
              /           |                                                                                                                                                                                                                                                |  
             /            |                                                                                                                                                                                                                                                |  
            /             |                                                                                                                                                                                                                                                |  
           /              |                                                                                                                                                                                                                                                |  
          /               |                                                                                                                                                                                                                                                |  
         /                |                                                                                                                                                                                                                                                |  
        /                 |                                                                                                                                                                                                                                                |  
       /                  |                                                                                                                                                                                                                                                |  
      /                   |                             H     H    H     H   H     H    H     H   H     H   H     H    H     H   H     H    H     H   H     H    H     H   H     H    H     H   H     H    H     H   H     H                                               |  
     /                    |                              C  C      C   C      C  C      C   C      C  C      C   C      C  C      C   C      C  C      C   C     C   C      C  C      C   C      C  C      C   C      C  C                                                 |  
    /                     |                           C      C   C      C  C      C   C      C  C      C   C      C  C      C   C      C  C      C   C     C   C      C  C      C   C      C  C      C   C      C  C      C                                                |  
   /                      |                          C C   CC  C  C  CC   C C   CC  C  C  CC   C C   CC  C  C  CC   C C   CC  C  C  CC   C C   C   C C   CC  C  C  CC   C C   CC  C  C  CC   C C   CC  C  C  CC   C C   CC                                                 |  
  /                       |                           C  C      C   C      C  C      C   C      C  C      C   C      C  C      C   C     C   C      C  C      C   C      C  C      C   C      C  C      C   C      C  C                                                    |  
 *                        |                        C      C   C      C  C      C   C      C  C      C   C      C  C      C   C     C   C      C  C      C   C      C  C      C   C      C  C      C   C      C  C      C                                                   |  
 |                        |                       C C   CC  C  C  CC   C C   CC  C  C  CC   C C   CC  C  C  CC   C C   C   C C   CC  C  C  CC   C C   CC  C  C  CC   C C   CC  C  C  CC   C C   CC  C  C  CC   C C   CC                                                    |  
 |               C C   CC |C  C  CC   C C   CC  C  C  CC   C C   CC  C  C  CC     C   C      C  C      C   C     C   C      C  C      C   C      C  C      C   C      C  C      C   C      C  C    C C   CC  C  C  CC   C C   CC  C  C  CC   C C   CC  C  C  CC            |  
 |             C  C CCC CCC CC CCCC C  C CCC CCC HC CCCH C HC CCCHCCC HC CCCH C H     H    H     H   H     H    H     H   H     H    H     H   H     H    H     H   H     H   H     H    H     H C HC CCCHCCC HC CCCH C  C CCC CCC CC CCCC C  C CCC CCC CC CCCC C          |  
 |              C  CC     CC  C      C  CC     CC  C      C  CC     CC  C      C                                                                                                                  C  CC     CC  C      C  CC     CC  C      C  CC     CC  C      C         |  
 |            C      C  CC|    CC  C      C  CC     CC  C      C  CC     CC  C                                                                                                                  C      C  CC     CC  C      C  CC     CC  C      C  CC     CC  C           |  
 |                  C     |C  C      C   C      C  C      C   C      C  C      C                                                                                                                      C      C  C      C   C      C  C      C   C      C  C      C         |  
 |             C  C      C|  C      C  C      C   C      C  C      C   C                                                                                                                         C  C      C   C      C  C      C   C      C  C      C   C                 |  
 |          C      C C C C|   C CC C    C C C C    C CC C    C C C C    C C  C                                                                                                                C      C C C C    C CC C    C C C C    C CC C    C C C C    C C  C           |  
 |                  C     |C  C      C   C      C  C      C   C      C  C      C                                                                                                                      C      C  C      C   C      C  C      C   C      C  C      C         |  
 |            C  C      C | C      C  C      C   C      C  C      C   C                                                                                                                         C  C      C   C      C  C      C   C      C  C      C   C                  |  
 |         C      C  CC  C|  C  C  C   C  CC  C   C  C  C   C  CC  C   C  C  C                                                                                                               C      C  CC  C   C  C  C   C  CC  C   C  C  C   C  CC  C   C  C  C           |  
 |                        |                                                                                                                                                                                                                                                |  
 |           C  C  C   C  CC  C   C  C  C   C  CC  C   C  C  C   C  CC  C      C                                                                                                               C  C  C   C  CC  C   C  C  C   C  CC  C   C  C  C   C  CC  C      C         |  
 |                  C   C |    C  C      C   C      C  C      C   C      C  C                                                                                                                         C   C      C  C      C   C      C  C      C   C      C  C            |  
 |         C      C  C    | C   C      C  C      C   C      C  C      C                                                                                                                      C      C  C      C   C      C  C      C   C      C  C      C                  |  
 |           C  C C    C C|C C    C CC C    C C C C    C CC C    C C C C      C                                                                                                                C  C C    C C C C    C CC C    C C C C    C CC C    C C C C      C          |  
 |                 C   C  |   C  C      C   C      C  C      C   C      C  C                                                                                                                         C   C      C  C      C   C      C  C      C   C      C  C             |  
 |         C      C  C    | C   C      C  C      C   C      C  C      C                                                                                                                      C      C  C      C   C      C  C      C   C      C  C      C                  |  
 |           C  CC     CC |C      C  CC     CC  C      C  CC     CC  C      C                                                                                                                  C  CC     CC  C      C  CC     CC  C      C  CC     CC  C      C            |  
 |         C      C  CC   | CC  C      C  CC     CC  C      C  CC     CC  C                                                                                                                  C      C  CC     CC  C      C  CC     CC  C      C  CC     CC  C              |  
 |          C CCCC CC CCC CCC C  C CCCC CC CCC CCC C  C CCCC CC CCC CCC C  C                                                                                                                  C CCCC CC CCC CCC C  C CCCC CC CCC CCC C  C CCCC CC CCC CCC C  C             |  
 |            CC  C  C  CC|  C C   CC  C  C  CC   C C   CC  C  C  CC   C C                                                                                                                      CC  C  C  CC   C C   CC  C  C  CC   C C   CC  C  C  CC   C C               |  
 |                        |                                                                                                                                                                                                                                                |  
 |                        .------------------------------------------------------------------------------------------------------------------------------------------------------------------------------------------------------------------------------------------------.  
 |                       /                                                                                                                                                                                                                                                /   
 |                      /                                                                                                                                                                                                                                                /    
 |                     /                                                                                                                                                                                                                                                /     
 |                    /                                                                                                                                                                                                                                                /      
 |                   /                                                                                                                                                                                                                                                /       
 |                  /                                                                                                                                                                                                                                                /        
 |                 /                                                                                                                                                                                                                                                /         
 |                /                                                                                                                                                                                                                                                /          
 |               /                                                                                                                                                                                                                                                /           
 |              /                                                                                                                                                                                                                                                /            
 |             /                                                                                                                                                                                                                                                /             
 |            /                                                                                                                                                                                                                                                /              
 |           /                                                                                                                                                                                                                                                /               
 |          /                                                                                                                                                                                                                                                /                
 |         /                                                                                                                                                                                                                                                /                 
 |        /                                                                                                                                                                                                                                                /                  
 |       /                                                                                                                                                                                                                                                /                   
 |      /                                                                                                                                                                                                                                                /                    
 |     /                                                                                                                                                                                                                                                /                     
 |    /                                                                                                                                                                                                                                                /                      
 |   /                                                                                                                                                                                                                                                /                       
 |  /                                                                                                                                                                                                                                                /                        
 | /                                                                                                                                                                                                                                                /                         
 |/                                                                                                                                                                                                                                                /                          
 *------------------------------------------------------------------------------------------------------------------------------------------------------------------------------------------------------------------------------------------------*                           

Positions:
   0 C      0.710436   13.049517   18.774440    ( 0.0000,  0.0000,  0.0000)
   1 C      0.710436   13.049517   21.225520    ( 0.0000,  0.0000,  0.0000)
   2 C      0.710436   13.887837   16.471160    ( 0.0000,  0.0000,  0.0000)
   3 C      0.710436   13.887837   23.528800    ( 0.0000,  0.0000,  0.0000)
   4 C      0.710436   15.463397   14.593520    ( 0.0000,  0.0000,  0.0000)
   5 C      0.710436   15.463397   25.406480    ( 0.0000,  0.0000,  0.0000)
   6 C      0.710436   17.586117   13.367960    ( 0.0000,  0.0000,  0.0000)
   7 C      0.710436   17.586117   26.632000    ( 0.0000,  0.0000,  0.0000)
   8 C      0.710436   19.999957   12.942356    ( 0.0000,  0.0000,  0.0000)
   9 C      0.710436   19.999957   27.057640    ( 0.0000,  0.0000,  0.0000)
  10 C      0.710436   22.413837   13.367960    ( 0.0000,  0.0000,  0.0000)
  11 C      0.710436   22.413837   26.632000    ( 0.0000,  0.0000,  0.0000)
  12 C      0.710436   24.536557   14.593520    ( 0.0000,  0.0000,  0.0000)
  13 C      0.710436   24.536557   25.406480    ( 0.0000,  0.0000,  0.0000)
  14 C      0.710436   26.112077   16.471160    ( 0.0000,  0.0000,  0.0000)
  15 C      0.710436   26.112077   23.528800    ( 0.0000,  0.0000,  0.0000)
  16 C      0.710436   26.950397   18.774440    ( 0.0000,  0.0000,  0.0000)
  17 C      0.710436   26.950397   21.225520    ( 0.0000,  0.0000,  0.0000)
  18 C      1.421611   12.942356   20.000000    ( 0.0000,  0.0000,  0.0000)
  19 C      1.421611   13.367957   17.586120    ( 0.0000,  0.0000,  0.0000)
  20 C      1.421611   13.367957   22.413840    ( 0.0000,  0.0000,  0.0000)
  21 C      1.421611   14.593477   15.463400    ( 0.0000,  0.0000,  0.0000)
  22 C      1.421611   14.593477   24.536560    ( 0.0000,  0.0000,  0.0000)
  23 C      1.421611   16.471157   13.887880    ( 0.0000,  0.0000,  0.0000)
  24 C      1.421611   16.471157   26.112080    ( 0.0000,  0.0000,  0.0000)
  25 C      1.421611   18.774437   13.049560    ( 0.0000,  0.0000,  0.0000)
  26 C      1.421611   18.774437   26.950440    ( 0.0000,  0.0000,  0.0000)
  27 C      1.421611   21.225517   13.049560    ( 0.0000,  0.0000,  0.0000)
  28 C      1.421611   21.225517   26.950440    ( 0.0000,  0.0000,  0.0000)
  29 C      1.421611   23.528797   13.887880    ( 0.0000,  0.0000,  0.0000)
  30 C      1.421611   23.528797   26.112080    ( 0.0000,  0.0000,  0.0000)
  31 C      1.421611   25.406437   15.463400    ( 0.0000,  0.0000,  0.0000)
  32 C      1.421611   25.406437   24.536560    ( 0.0000,  0.0000,  0.0000)
  33 C      1.421611   26.631997   17.586120    ( 0.0000,  0.0000,  0.0000)
  34 C      1.421611   26.631997   22.413840    ( 0.0000,  0.0000,  0.0000)
  35 C      1.421611   27.057637   20.000000    ( 0.0000,  0.0000,  0.0000)
  36 C      2.842610   12.942320   20.000000    ( 0.0000,  0.0000,  0.0000)
  37 C      2.842610   13.367957   17.586120    ( 0.0000,  0.0000,  0.0000)
  38 C      2.842610   13.367957   22.413840    ( 0.0000,  0.0000,  0.0000)
  39 C      2.842610   14.593477   15.463400    ( 0.0000,  0.0000,  0.0000)
  40 C      2.842610   14.593477   24.536560    ( 0.0000,  0.0000,  0.0000)
  41 C      2.842610   16.471157   13.887880    ( 0.0000,  0.0000,  0.0000)
  42 C      2.842610   16.471157   26.112080    ( 0.0000,  0.0000,  0.0000)
  43 C      2.842610   18.774437   13.049560    ( 0.0000,  0.0000,  0.0000)
  44 C      2.842610   18.774437   26.950440    ( 0.0000,  0.0000,  0.0000)
  45 C      2.842610   21.225517   13.049560    ( 0.0000,  0.0000,  0.0000)
  46 C      2.842610   21.225517   26.950440    ( 0.0000,  0.0000,  0.0000)
  47 C      2.842610   23.528797   13.887880    ( 0.0000,  0.0000,  0.0000)
  48 C      2.842610   23.528797   26.112080    ( 0.0000,  0.0000,  0.0000)
  49 C      2.842610   25.406437   15.463400    ( 0.0000,  0.0000,  0.0000)
  50 C      2.842610   25.406437   24.536560    ( 0.0000,  0.0000,  0.0000)
  51 C      2.842610   26.631997   17.586120    ( 0.0000,  0.0000,  0.0000)
  52 C      2.842610   26.631997   22.413840    ( 0.0000,  0.0000,  0.0000)
  53 C      2.842610   27.057637   20.000000    ( 0.0000,  0.0000,  0.0000)
  54 C      3.553096   13.049517   18.774440    ( 0.0000,  0.0000,  0.0000)
  55 C      3.553096   13.049517   21.225520    ( 0.0000,  0.0000,  0.0000)
  56 C      3.553096   13.887837   16.471160    ( 0.0000,  0.0000,  0.0000)
  57 C      3.553096   13.887837   23.528800    ( 0.0000,  0.0000,  0.0000)
  58 C      3.553096   15.463397   14.593520    ( 0.0000,  0.0000,  0.0000)
  59 C      3.553096   15.463397   25.406480    ( 0.0000,  0.0000,  0.0000)
  60 C      3.553096   17.586117   13.367960    ( 0.0000,  0.0000,  0.0000)
  61 C      3.553096   17.586117   26.632000    ( 0.0000,  0.0000,  0.0000)
  62 C      3.553096   19.999957   12.942320    ( 0.0000,  0.0000,  0.0000)
  63 C      3.553096   19.999957   27.057640    ( 0.0000,  0.0000,  0.0000)
  64 C      3.553096   22.413837   13.367960    ( 0.0000,  0.0000,  0.0000)
  65 C      3.553096   22.413837   26.632000    ( 0.0000,  0.0000,  0.0000)
  66 C      3.553096   24.536557   14.593520    ( 0.0000,  0.0000,  0.0000)
  67 C      3.553096   24.536557   25.406480    ( 0.0000,  0.0000,  0.0000)
  68 C      3.553096   26.112077   16.471160    ( 0.0000,  0.0000,  0.0000)
  69 C      3.553096   26.112077   23.528800    ( 0.0000,  0.0000,  0.0000)
  70 C      3.553096   26.950397   18.774440    ( 0.0000,  0.0000,  0.0000)
  71 C      3.553096   26.950397   21.225520    ( 0.0000,  0.0000,  0.0000)
  72 C      4.974096   13.049517   18.774440    ( 0.0000,  0.0000,  0.0000)
  73 C      4.974096   13.049517   21.225520    ( 0.0000,  0.0000,  0.0000)
  74 C      4.974096   13.887837   16.471160    ( 0.0000,  0.0000,  0.0000)
  75 C      4.974096   13.887837   23.528800    ( 0.0000,  0.0000,  0.0000)
  76 C      4.974096   15.463397   14.593520    ( 0.0000,  0.0000,  0.0000)
  77 C      4.974096   15.463397   25.406480    ( 0.0000,  0.0000,  0.0000)
  78 C      4.974096   17.586117   13.367960    ( 0.0000,  0.0000,  0.0000)
  79 C      4.974096   17.586117   26.632000    ( 0.0000,  0.0000,  0.0000)
  80 C      4.974096   19.999957   12.942320    ( 0.0000,  0.0000,  0.0000)
  81 C      4.974096   19.999957   27.057640    ( 0.0000,  0.0000,  0.0000)
  82 C      4.974096   22.413837   13.367960    ( 0.0000,  0.0000,  0.0000)
  83 C      4.974096   22.413837   26.632000    ( 0.0000,  0.0000,  0.0000)
  84 C      4.974096   24.536557   14.593520    ( 0.0000,  0.0000,  0.0000)
  85 C      4.974096   24.536557   25.406480    ( 0.0000,  0.0000,  0.0000)
  86 C      4.974096   26.112077   16.471160    ( 0.0000,  0.0000,  0.0000)
  87 C      4.974096   26.112077   23.528800    ( 0.0000,  0.0000,  0.0000)
  88 C      4.974096   26.950397   18.774440    ( 0.0000,  0.0000,  0.0000)
  89 C      4.974096   26.950397   21.225520    ( 0.0000,  0.0000,  0.0000)
  90 C      5.685274   12.942320   20.000000    ( 0.0000,  0.0000,  0.0000)
  91 C      5.685274   13.367957   17.586120    ( 0.0000,  0.0000,  0.0000)
  92 C      5.685274   13.367957   22.413840    ( 0.0000,  0.0000,  0.0000)
  93 C      5.685274   14.593477   15.463400    ( 0.0000,  0.0000,  0.0000)
  94 C      5.685274   14.593477   24.536560    ( 0.0000,  0.0000,  0.0000)
  95 C      5.685274   16.471157   13.887880    ( 0.0000,  0.0000,  0.0000)
  96 C      5.685274   16.471157   26.112080    ( 0.0000,  0.0000,  0.0000)
  97 C      5.685274   18.774437   13.049560    ( 0.0000,  0.0000,  0.0000)
  98 C      5.685274   18.774437   26.950440    ( 0.0000,  0.0000,  0.0000)
  99 C      5.685274   21.225517   13.049560    ( 0.0000,  0.0000,  0.0000)
 100 C      5.685274   21.225517   26.950440    ( 0.0000,  0.0000,  0.0000)
 101 C      5.685274   23.528797   13.887880    ( 0.0000,  0.0000,  0.0000)
 102 C      5.685274   23.528797   26.112080    ( 0.0000,  0.0000,  0.0000)
 103 C      5.685274   25.406437   15.463400    ( 0.0000,  0.0000,  0.0000)
 104 C      5.685274   25.406437   24.536560    ( 0.0000,  0.0000,  0.0000)
 105 C      5.685274   26.631997   17.586120    ( 0.0000,  0.0000,  0.0000)
 106 C      5.685274   26.631997   22.413840    ( 0.0000,  0.0000,  0.0000)
 107 C      5.685274   27.057637   20.000000    ( 0.0000,  0.0000,  0.0000)
 108 C      7.106273   12.942320   20.000000    ( 0.0000,  0.0000,  0.0000)
 109 C      7.106273   13.367957   17.586120    ( 0.0000,  0.0000,  0.0000)
 110 C      7.106273   13.367957   22.413840    ( 0.0000,  0.0000,  0.0000)
 111 C      7.106273   14.593477   15.463400    ( 0.0000,  0.0000,  0.0000)
 112 C      7.106273   14.593477   24.536560    ( 0.0000,  0.0000,  0.0000)
 113 C      7.106273   16.471157   13.887880    ( 0.0000,  0.0000,  0.0000)
 114 C      7.106273   16.471157   26.112080    ( 0.0000,  0.0000,  0.0000)
 115 C      7.106273   18.774437   13.049560    ( 0.0000,  0.0000,  0.0000)
 116 C      7.106273   18.774437   26.950440    ( 0.0000,  0.0000,  0.0000)
 117 C      7.106273   21.225517   13.049560    ( 0.0000,  0.0000,  0.0000)
 118 C      7.106273   21.225517   26.950440    ( 0.0000,  0.0000,  0.0000)
 119 C      7.106273   23.528797   13.887880    ( 0.0000,  0.0000,  0.0000)
 120 C      7.106273   23.528797   26.112080    ( 0.0000,  0.0000,  0.0000)
 121 C      7.106273   25.406437   15.463400    ( 0.0000,  0.0000,  0.0000)
 122 C      7.106273   25.406437   24.536560    ( 0.0000,  0.0000,  0.0000)
 123 C      7.106273   26.631997   17.586120    ( 0.0000,  0.0000,  0.0000)
 124 C      7.106273   26.631997   22.413840    ( 0.0000,  0.0000,  0.0000)
 125 C      7.106273   27.057637   20.000000    ( 0.0000,  0.0000,  0.0000)
 126 C      7.816761   13.049517   18.774440    ( 0.0000,  0.0000,  0.0000)
 127 C      7.816761   13.049517   21.225520    ( 0.0000,  0.0000,  0.0000)
 128 C      7.816761   13.887837   16.471160    ( 0.0000,  0.0000,  0.0000)
 129 C      7.816761   13.887837   23.528800    ( 0.0000,  0.0000,  0.0000)
 130 C      7.816761   15.463397   14.593520    ( 0.0000,  0.0000,  0.0000)
 131 C      7.816761   15.463397   25.406480    ( 0.0000,  0.0000,  0.0000)
 132 C      7.816761   17.586117   13.367960    ( 0.0000,  0.0000,  0.0000)
 133 C      7.816761   17.586117   26.632000    ( 0.0000,  0.0000,  0.0000)
 134 C      7.816761   19.999957   12.942320    ( 0.0000,  0.0000,  0.0000)
 135 C      7.816761   19.999957   27.057640    ( 0.0000,  0.0000,  0.0000)
 136 C      7.816761   22.413837   13.367960    ( 0.0000,  0.0000,  0.0000)
 137 C      7.816761   22.413837   26.632000    ( 0.0000,  0.0000,  0.0000)
 138 C      7.816761   24.536557   14.593520    ( 0.0000,  0.0000,  0.0000)
 139 C      7.816761   24.536557   25.406480    ( 0.0000,  0.0000,  0.0000)
 140 C      7.816761   26.112077   16.471160    ( 0.0000,  0.0000,  0.0000)
 141 C      7.816761   26.112077   23.528800    ( 0.0000,  0.0000,  0.0000)
 142 C      7.816761   26.950397   18.774440    ( 0.0000,  0.0000,  0.0000)
 143 C      7.816761   26.950397   21.225520    ( 0.0000,  0.0000,  0.0000)
 144 C      9.237735   13.049517   18.774440    ( 0.0000,  0.0000,  0.0000)
 145 C      9.237735   13.049517   21.225520    ( 0.0000,  0.0000,  0.0000)
 146 C      9.237735   13.887837   16.471160    ( 0.0000,  0.0000,  0.0000)
 147 C      9.237735   13.887837   23.528800    ( 0.0000,  0.0000,  0.0000)
 148 C      9.237735   15.463397   14.593520    ( 0.0000,  0.0000,  0.0000)
 149 C      9.237735   15.463397   25.406480    ( 0.0000,  0.0000,  0.0000)
 150 C      9.237735   17.586117   13.367960    ( 0.0000,  0.0000,  0.0000)
 151 C      9.237735   17.586117   26.632000    ( 0.0000,  0.0000,  0.0000)
 152 C      9.237735   19.999957   12.942320    ( 0.0000,  0.0000,  0.0000)
 153 C      9.237735   22.413837   13.367960    ( 0.0000,  0.0000,  0.0000)
 154 C      9.237735   24.536557   25.406480    ( 0.0000,  0.0000,  0.0000)
 155 C      9.237735   26.112077   16.471160    ( 0.0000,  0.0000,  0.0000)
 156 C      9.237735   26.112077   23.528800    ( 0.0000,  0.0000,  0.0000)
 157 C      9.237735   26.950397   18.774440    ( 0.0000,  0.0000,  0.0000)
 158 C      9.237735   26.950397   21.225520    ( 0.0000,  0.0000,  0.0000)
 159 C      9.237760   19.999957   27.057640    ( 0.0000,  0.0000,  0.0000)
 160 C      9.237760   22.413837   26.632000    ( 0.0000,  0.0000,  0.0000)
 161 C      9.237760   24.536557   14.593520    ( 0.0000,  0.0000,  0.0000)
 162 C      9.948912   12.942320   20.000000    ( 0.0000,  0.0000,  0.0000)
 163 C      9.948912   13.367957   17.586120    ( 0.0000,  0.0000,  0.0000)
 164 C      9.948912   13.367957   22.413840    ( 0.0000,  0.0000,  0.0000)
 165 C      9.948912   14.593477   15.463400    ( 0.0000,  0.0000,  0.0000)
 166 C      9.948912   14.593477   24.536560    ( 0.0000,  0.0000,  0.0000)
 167 C      9.948912   16.471157   13.887880    ( 0.0000,  0.0000,  0.0000)
 168 C      9.948912   16.471157   26.112080    ( 0.0000,  0.0000,  0.0000)
 169 C      9.948912   18.774437   13.049560    ( 0.0000,  0.0000,  0.0000)
 170 C      9.948912   18.774437   26.950440    ( 0.0000,  0.0000,  0.0000)
 171 C      9.948912   21.225517   13.049560    ( 0.0000,  0.0000,  0.0000)
 172 C      9.948912   21.225517   26.950440    ( 0.0000,  0.0000,  0.0000)
 173 C      9.948912   23.528797   13.887880    ( 0.0000,  0.0000,  0.0000)
 174 C      9.948912   23.528797   26.112080    ( 0.0000,  0.0000,  0.0000)
 175 C      9.948912   25.406437   15.463400    ( 0.0000,  0.0000,  0.0000)
 176 C      9.948912   25.406437   24.536560    ( 0.0000,  0.0000,  0.0000)
 177 C      9.948912   26.631997   17.586120    ( 0.0000,  0.0000,  0.0000)
 178 C      9.948912   26.631997   22.413840    ( 0.0000,  0.0000,  0.0000)
 179 C      9.948912   27.057637   20.000000    ( 0.0000,  0.0000,  0.0000)
 180 C     11.369912   12.942320   20.000000    ( 0.0000,  0.0000,  0.0000)
 181 C     11.369912   13.367957   17.586120    ( 0.0000,  0.0000,  0.0000)
 182 C     11.369912   13.367957   22.413840    ( 0.0000,  0.0000,  0.0000)
 183 C     11.369912   14.593477   15.463400    ( 0.0000,  0.0000,  0.0000)
 184 C     11.369912   14.593477   24.536560    ( 0.0000,  0.0000,  0.0000)
 185 C     11.369912   16.471157   13.887880    ( 0.0000,  0.0000,  0.0000)
 186 C     11.369912   16.471157   26.112080    ( 0.0000,  0.0000,  0.0000)
 187 C     11.369912   18.774437   13.049560    ( 0.0000,  0.0000,  0.0000)
 188 C     11.369912   18.774437   26.950440    ( 0.0000,  0.0000,  0.0000)
 189 C     11.369912   21.225517   13.049560    ( 0.0000,  0.0000,  0.0000)
 190 C     11.369912   21.225517   26.950440    ( 0.0000,  0.0000,  0.0000)
 191 C     11.369912   23.528797   13.887880    ( 0.0000,  0.0000,  0.0000)
 192 C     11.369912   23.528797   26.112080    ( 0.0000,  0.0000,  0.0000)
 193 C     11.369912   25.406437   15.463400    ( 0.0000,  0.0000,  0.0000)
 194 C     11.369912   25.406437   24.536560    ( 0.0000,  0.0000,  0.0000)
 195 C     11.369912   26.631997   17.586120    ( 0.0000,  0.0000,  0.0000)
 196 C     11.369912   26.631997   22.413840    ( 0.0000,  0.0000,  0.0000)
 197 C     11.369912   27.057637   20.000000    ( 0.0000,  0.0000,  0.0000)
 198 C     12.080425   13.049517   18.774440    ( 0.0000,  0.0000,  0.0000)
 199 C     12.080425   13.049517   21.225520    ( 0.0000,  0.0000,  0.0000)
 200 C     12.080425   13.887837   16.471160    ( 0.0000,  0.0000,  0.0000)
 201 C     12.080425   13.887837   23.528800    ( 0.0000,  0.0000,  0.0000)
 202 C     12.080425   15.463397   14.593520    ( 0.0000,  0.0000,  0.0000)
 203 C     12.080425   15.463397   25.406480    ( 0.0000,  0.0000,  0.0000)
 204 C     12.080425   17.586117   13.367960    ( 0.0000,  0.0000,  0.0000)
 205 C     12.080425   17.586117   26.632000    ( 0.0000,  0.0000,  0.0000)
 206 C     12.080425   19.999957   12.942320    ( 0.0000,  0.0000,  0.0000)
 207 C     12.080425   19.999957   27.057640    ( 0.0000,  0.0000,  0.0000)
 208 C     12.080425   22.413837   13.367960    ( 0.0000,  0.0000,  0.0000)
 209 C     12.080425   22.413837   26.632000    ( 0.0000,  0.0000,  0.0000)
 210 C     12.080425   24.536557   14.593520    ( 0.0000,  0.0000,  0.0000)
 211 C     12.080425   24.536557   25.406480    ( 0.0000,  0.0000,  0.0000)
 212 C     12.080425   26.112077   16.471160    ( 0.0000,  0.0000,  0.0000)
 213 C     12.080425   26.112077   23.528800    ( 0.0000,  0.0000,  0.0000)
 214 C     12.080425   26.950397   18.774440    ( 0.0000,  0.0000,  0.0000)
 215 C     12.080425   26.950397   21.225520    ( 0.0000,  0.0000,  0.0000)
 216 C     13.501399   13.049517   18.774440    ( 0.0000,  0.0000,  0.0000)
 217 C     13.501399   13.049517   21.225520    ( 0.0000,  0.0000,  0.0000)
 218 C     13.501399   13.887837   16.471160    ( 0.0000,  0.0000,  0.0000)
 219 C     13.501399   13.887837   23.528800    ( 0.0000,  0.0000,  0.0000)
 220 C     13.501399   15.463397   14.593520    ( 0.0000,  0.0000,  0.0000)
 221 C     13.501399   15.463397   25.406480    ( 0.0000,  0.0000,  0.0000)
 222 C     13.501399   17.586117   13.367960    ( 0.0000,  0.0000,  0.0000)
 223 C     13.501399   17.586117   26.632000    ( 0.0000,  0.0000,  0.0000)
 224 C     13.501399   19.999957   12.942320    ( 0.0000,  0.0000,  0.0000)
 225 C     13.501399   19.999957   27.057640    ( 0.0000,  0.0000,  0.0000)
 226 C     13.501399   22.413837   13.367960    ( 0.0000,  0.0000,  0.0000)
 227 C     13.501399   22.413837   26.632000    ( 0.0000,  0.0000,  0.0000)
 228 C     13.501399   24.536557   14.593520    ( 0.0000,  0.0000,  0.0000)
 229 C     13.501399   24.536557   25.406480    ( 0.0000,  0.0000,  0.0000)
 230 C     13.501399   26.112077   16.471160    ( 0.0000,  0.0000,  0.0000)
 231 C     13.501399   26.112077   23.528800    ( 0.0000,  0.0000,  0.0000)
 232 C     13.501399   26.950397   18.774440    ( 0.0000,  0.0000,  0.0000)
 233 C     13.501399   26.950397   21.225520    ( 0.0000,  0.0000,  0.0000)
 234 C     14.212577   12.942320   20.000000    ( 0.0000,  0.0000,  0.0000)
 235 C     14.212577   13.367957   17.586120    ( 0.0000,  0.0000,  0.0000)
 236 C     14.212577   13.367957   22.413840    ( 0.0000,  0.0000,  0.0000)
 237 C     14.212577   14.593477   15.463400    ( 0.0000,  0.0000,  0.0000)
 238 C     14.212577   14.593477   24.536560    ( 0.0000,  0.0000,  0.0000)
 239 C     14.212577   16.471157   13.887880    ( 0.0000,  0.0000,  0.0000)
 240 C     14.212577   16.471157   26.112080    ( 0.0000,  0.0000,  0.0000)
 241 C     14.212577   18.774437   13.049560    ( 0.0000,  0.0000,  0.0000)
 242 C     14.212577   18.774437   26.950440    ( 0.0000,  0.0000,  0.0000)
 243 C     14.212577   21.225517   13.049560    ( 0.0000,  0.0000,  0.0000)
 244 C     14.212577   21.225517   26.950440    ( 0.0000,  0.0000,  0.0000)
 245 C     14.212577   23.528797   13.887880    ( 0.0000,  0.0000,  0.0000)
 246 C     14.212577   23.528797   26.112080    ( 0.0000,  0.0000,  0.0000)
 247 C     14.212577   25.406437   15.463400    ( 0.0000,  0.0000,  0.0000)
 248 C     14.212577   25.406437   24.536560    ( 0.0000,  0.0000,  0.0000)
 249 C     14.212577   26.631997   17.586120    ( 0.0000,  0.0000,  0.0000)
 250 C     14.212577   26.631997   22.413840    ( 0.0000,  0.0000,  0.0000)
 251 C     14.212577   27.057637   20.000000    ( 0.0000,  0.0000,  0.0000)
 252 C     15.633576   12.942320   20.000000    ( 0.0000,  0.0000,  0.0000)
 253 C     15.633576   13.367957   17.586120    ( 0.0000,  0.0000,  0.0000)
 254 C     15.633576   13.367957   22.413840    ( 0.0000,  0.0000,  0.0000)
 255 C     15.633576   14.593477   15.463400    ( 0.0000,  0.0000,  0.0000)
 256 C     15.633576   14.593477   24.536560    ( 0.0000,  0.0000,  0.0000)
 257 C     15.633576   16.471157   13.887880    ( 0.0000,  0.0000,  0.0000)
 258 C     15.633576   16.471157   26.112080    ( 0.0000,  0.0000,  0.0000)
 259 C     15.633576   18.774437   13.049560    ( 0.0000,  0.0000,  0.0000)
 260 C     15.633576   18.774437   26.950440    ( 0.0000,  0.0000,  0.0000)
 261 C     15.633576   21.225517   13.049560    ( 0.0000,  0.0000,  0.0000)
 262 C     15.633576   21.225517   26.950440    ( 0.0000,  0.0000,  0.0000)
 263 C     15.633576   23.528797   13.887880    ( 0.0000,  0.0000,  0.0000)
 264 C     15.633576   23.528797   26.112080    ( 0.0000,  0.0000,  0.0000)
 265 C     15.633576   25.406437   15.463400    ( 0.0000,  0.0000,  0.0000)
 266 C     15.633576   25.406437   24.536560    ( 0.0000,  0.0000,  0.0000)
 267 C     15.633576   26.631997   17.586120    ( 0.0000,  0.0000,  0.0000)
 268 C     15.633576   26.631997   22.413840    ( 0.0000,  0.0000,  0.0000)
 269 C     15.633576   27.057637   20.000000    ( 0.0000,  0.0000,  0.0000)
 270 C     16.344063   13.049517   18.774440    ( 0.0000,  0.0000,  0.0000)
 271 C     16.344063   13.049517   21.225520    ( 0.0000,  0.0000,  0.0000)
 272 C     16.344063   13.887837   16.471160    ( 0.0000,  0.0000,  0.0000)
 273 C     16.344063   13.887837   23.528800    ( 0.0000,  0.0000,  0.0000)
 274 C     16.344063   15.463397   14.593520    ( 0.0000,  0.0000,  0.0000)
 275 C     16.344063   15.463397   25.406480    ( 0.0000,  0.0000,  0.0000)
 276 C     16.344063   17.586117   13.367960    ( 0.0000,  0.0000,  0.0000)
 277 C     16.344063   17.586117   26.632000    ( 0.0000,  0.0000,  0.0000)
 278 C     16.344063   19.999957   12.942320    ( 0.0000,  0.0000,  0.0000)
 279 C     16.344063   19.999957   27.057640    ( 0.0000,  0.0000,  0.0000)
 280 C     16.344063   22.413837   13.367960    ( 0.0000,  0.0000,  0.0000)
 281 C     16.344063   22.413837   26.632000    ( 0.0000,  0.0000,  0.0000)
 282 C     16.344063   24.536557   14.593520    ( 0.0000,  0.0000,  0.0000)
 283 C     16.344063   24.536557   25.406480    ( 0.0000,  0.0000,  0.0000)
 284 C     16.344063   26.112077   16.471160    ( 0.0000,  0.0000,  0.0000)
 285 C     16.344063   26.112077   23.528800    ( 0.0000,  0.0000,  0.0000)
 286 C     16.344063   26.950397   18.774440    ( 0.0000,  0.0000,  0.0000)
 287 C     16.344063   26.950397   21.225520    ( 0.0000,  0.0000,  0.0000)
 288 C     17.765063   13.049517   18.774440    ( 0.0000,  0.0000,  0.0000)
 289 C     17.765063   13.049517   21.225520    ( 0.0000,  0.0000,  0.0000)
 290 C     17.765063   13.887837   16.471160    ( 0.0000,  0.0000,  0.0000)
 291 C     17.765063   13.887837   23.528800    ( 0.0000,  0.0000,  0.0000)
 292 C     17.765063   15.463397   14.593520    ( 0.0000,  0.0000,  0.0000)
 293 C     17.765063   15.463397   25.406480    ( 0.0000,  0.0000,  0.0000)
 294 C     17.765063   17.586117   13.367960    ( 0.0000,  0.0000,  0.0000)
 295 C     17.765063   17.586117   26.632000    ( 0.0000,  0.0000,  0.0000)
 296 C     17.765063   19.999957   12.942320    ( 0.0000,  0.0000,  0.0000)
 297 C     17.765063   19.999957   27.057640    ( 0.0000,  0.0000,  0.0000)
 298 C     17.765063   22.413837   13.367960    ( 0.0000,  0.0000,  0.0000)
 299 C     17.765063   22.413837   26.632000    ( 0.0000,  0.0000,  0.0000)
 300 C     17.765063   24.536557   14.593520    ( 0.0000,  0.0000,  0.0000)
 301 C     17.765063   24.536557   25.406480    ( 0.0000,  0.0000,  0.0000)
 302 C     17.765063   26.112077   16.471160    ( 0.0000,  0.0000,  0.0000)
 303 C     17.765063   26.112077   23.528800    ( 0.0000,  0.0000,  0.0000)
 304 C     17.765063   26.950397   18.774440    ( 0.0000,  0.0000,  0.0000)
 305 C     17.765063   26.950397   21.225520    ( 0.0000,  0.0000,  0.0000)
 306 C     18.476241   12.942320   20.000000    ( 0.0000,  0.0000,  0.0000)
 307 C     18.476241   13.367957   17.586120    ( 0.0000,  0.0000,  0.0000)
 308 C     18.476241   13.367957   22.413840    ( 0.0000,  0.0000,  0.0000)
 309 C     18.476241   14.593477   15.463400    ( 0.0000,  0.0000,  0.0000)
 310 C     18.476241   14.593477   24.536560    ( 0.0000,  0.0000,  0.0000)
 311 C     18.476241   16.471157   13.887880    ( 0.0000,  0.0000,  0.0000)
 312 C     18.476241   16.471157   26.112080    ( 0.0000,  0.0000,  0.0000)
 313 C     18.476241   18.774437   13.049560    ( 0.0000,  0.0000,  0.0000)
 314 C     18.476241   18.774437   26.950440    ( 0.0000,  0.0000,  0.0000)
 315 C     18.476241   21.225517   13.049560    ( 0.0000,  0.0000,  0.0000)
 316 C     18.476241   21.225517   26.950440    ( 0.0000,  0.0000,  0.0000)
 317 C     18.476241   23.528797   13.887880    ( 0.0000,  0.0000,  0.0000)
 318 C     18.476241   23.528797   26.112080    ( 0.0000,  0.0000,  0.0000)
 319 C     18.476241   25.406437   15.463400    ( 0.0000,  0.0000,  0.0000)
 320 C     18.476241   25.406437   24.536560    ( 0.0000,  0.0000,  0.0000)
 321 C     18.476241   26.631997   17.586120    ( 0.0000,  0.0000,  0.0000)
 322 C     18.476241   26.631997   22.413840    ( 0.0000,  0.0000,  0.0000)
 323 C     18.476241   27.057637   20.000000    ( 0.0000,  0.0000,  0.0000)
 324 C     19.897240   12.942320   20.000000    ( 0.0000,  0.0000,  0.0000)
 325 C     19.897240   13.367957   17.586120    ( 0.0000,  0.0000,  0.0000)
 326 C     19.897240   13.367957   22.413840    ( 0.0000,  0.0000,  0.0000)
 327 C     19.897240   14.593477   15.463400    ( 0.0000,  0.0000,  0.0000)
 328 C     19.897240   14.593477   24.536560    ( 0.0000,  0.0000,  0.0000)
 329 C     19.897240   16.471157   13.887880    ( 0.0000,  0.0000,  0.0000)
 330 C     19.897240   16.471157   26.112080    ( 0.0000,  0.0000,  0.0000)
 331 C     19.897240   18.774437   13.049560    ( 0.0000,  0.0000,  0.0000)
 332 C     19.897240   18.774437   26.950440    ( 0.0000,  0.0000,  0.0000)
 333 C     19.897240   21.225517   13.049560    ( 0.0000,  0.0000,  0.0000)
 334 C     19.897240   21.225517   26.950440    ( 0.0000,  0.0000,  0.0000)
 335 C     19.897240   23.528797   13.887880    ( 0.0000,  0.0000,  0.0000)
 336 C     19.897240   23.528797   26.112080    ( 0.0000,  0.0000,  0.0000)
 337 C     19.897240   25.406437   15.463400    ( 0.0000,  0.0000,  0.0000)
 338 C     19.897240   25.406437   24.536560    ( 0.0000,  0.0000,  0.0000)
 339 C     19.897240   26.631997   17.586120    ( 0.0000,  0.0000,  0.0000)
 340 C     19.897240   26.631997   22.413840    ( 0.0000,  0.0000,  0.0000)
 341 C     19.897240   27.057637   20.000000    ( 0.0000,  0.0000,  0.0000)
 342 C     20.607727   13.049517   18.774440    ( 0.0000,  0.0000,  0.0000)
 343 C     20.607727   13.049517   21.225520    ( 0.0000,  0.0000,  0.0000)
 344 C     20.607727   13.887837   16.471160    ( 0.0000,  0.0000,  0.0000)
 345 C     20.607727   13.887837   23.528800    ( 0.0000,  0.0000,  0.0000)
 346 C     20.607727   15.463397   14.593520    ( 0.0000,  0.0000,  0.0000)
 347 C     20.607727   15.463397   25.406480    ( 0.0000,  0.0000,  0.0000)
 348 C     20.607727   17.586117   13.367960    ( 0.0000,  0.0000,  0.0000)
 349 C     20.607727   17.586117   26.632000    ( 0.0000,  0.0000,  0.0000)
 350 C     20.607727   19.999957   12.942320    ( 0.0000,  0.0000,  0.0000)
 351 C     20.607727   19.999957   27.057640    ( 0.0000,  0.0000,  0.0000)
 352 C     20.607727   22.413837   13.367960    ( 0.0000,  0.0000,  0.0000)
 353 C     20.607727   22.413837   26.632000    ( 0.0000,  0.0000,  0.0000)
 354 C     20.607727   24.536557   14.593520    ( 0.0000,  0.0000,  0.0000)
 355 C     20.607727   24.536557   25.406480    ( 0.0000,  0.0000,  0.0000)
 356 C     20.607727   26.112077   16.471160    ( 0.0000,  0.0000,  0.0000)
 357 C     20.607727   26.112077   23.528800    ( 0.0000,  0.0000,  0.0000)
 358 C     20.607727   26.950397   18.774440    ( 0.0000,  0.0000,  0.0000)
 359 C     20.607727   26.950397   21.225520    ( 0.0000,  0.0000,  0.0000)
 360 C     22.028702   13.049517   18.774440    ( 0.0000,  0.0000,  0.0000)
 361 C     22.028702   13.049517   21.225520    ( 0.0000,  0.0000,  0.0000)
 362 C     22.028702   13.887837   16.471160    ( 0.0000,  0.0000,  0.0000)
 363 C     22.028702   13.887837   23.528800    ( 0.0000,  0.0000,  0.0000)
 364 C     22.028702   15.463397   14.593520    ( 0.0000,  0.0000,  0.0000)
 365 C     22.028702   15.463397   25.406480    ( 0.0000,  0.0000,  0.0000)
 366 C     22.028702   17.586117   13.367960    ( 0.0000,  0.0000,  0.0000)
 367 C     22.028702   17.586117   26.632000    ( 0.0000,  0.0000,  0.0000)
 368 C     22.028702   19.999957   12.942320    ( 0.0000,  0.0000,  0.0000)
 369 C     22.028702   22.413837   13.367960    ( 0.0000,  0.0000,  0.0000)
 370 C     22.028702   24.536557   25.406480    ( 0.0000,  0.0000,  0.0000)
 371 C     22.028702   26.112077   16.471160    ( 0.0000,  0.0000,  0.0000)
 372 C     22.028702   26.112077   23.528800    ( 0.0000,  0.0000,  0.0000)
 373 C     22.028702   26.950397   18.774440    ( 0.0000,  0.0000,  0.0000)
 374 C     22.028702   26.950397   21.225520    ( 0.0000,  0.0000,  0.0000)
 375 C     22.028727   19.999957   27.057640    ( 0.0000,  0.0000,  0.0000)
 376 C     22.028727   22.413837   26.632000    ( 0.0000,  0.0000,  0.0000)
 377 C     22.028727   24.536557   14.593520    ( 0.0000,  0.0000,  0.0000)
 378 C     22.739879   12.942320   20.000000    ( 0.0000,  0.0000,  0.0000)
 379 C     22.739879   13.367957   17.586120    ( 0.0000,  0.0000,  0.0000)
 380 C     22.739879   13.367957   22.413840    ( 0.0000,  0.0000,  0.0000)
 381 C     22.739879   14.593477   15.463400    ( 0.0000,  0.0000,  0.0000)
 382 C     22.739879   14.593477   24.536560    ( 0.0000,  0.0000,  0.0000)
 383 C     22.739879   16.471157   13.887880    ( 0.0000,  0.0000,  0.0000)
 384 C     22.739879   16.471157   26.112080    ( 0.0000,  0.0000,  0.0000)
 385 C     22.739879   18.774437   13.049560    ( 0.0000,  0.0000,  0.0000)
 386 C     22.739879   18.774437   26.950440    ( 0.0000,  0.0000,  0.0000)
 387 C     22.739879   21.225517   13.049560    ( 0.0000,  0.0000,  0.0000)
 388 C     22.739879   21.225517   26.950440    ( 0.0000,  0.0000,  0.0000)
 389 C     22.739879   23.528797   13.887880    ( 0.0000,  0.0000,  0.0000)
 390 C     22.739879   23.528797   26.112080    ( 0.0000,  0.0000,  0.0000)
 391 C     22.739879   25.406437   15.463400    ( 0.0000,  0.0000,  0.0000)
 392 C     22.739879   25.406437   24.536560    ( 0.0000,  0.0000,  0.0000)
 393 C     22.739879   26.631997   17.586120    ( 0.0000,  0.0000,  0.0000)
 394 C     22.739879   26.631997   22.413840    ( 0.0000,  0.0000,  0.0000)
 395 C     22.739879   27.057637   20.000000    ( 0.0000,  0.0000,  0.0000)
 396 C     24.160879   12.942320   20.000000    ( 0.0000,  0.0000,  0.0000)
 397 C     24.160879   13.367957   17.586120    ( 0.0000,  0.0000,  0.0000)
 398 C     24.160879   13.367957   22.413840    ( 0.0000,  0.0000,  0.0000)
 399 C     24.160879   14.593477   15.463400    ( 0.0000,  0.0000,  0.0000)
 400 C     24.160879   14.593477   24.536560    ( 0.0000,  0.0000,  0.0000)
 401 C     24.160879   16.471157   13.887880    ( 0.0000,  0.0000,  0.0000)
 402 C     24.160879   16.471157   26.112080    ( 0.0000,  0.0000,  0.0000)
 403 C     24.160879   18.774437   13.049560    ( 0.0000,  0.0000,  0.0000)
 404 C     24.160879   18.774437   26.950440    ( 0.0000,  0.0000,  0.0000)
 405 C     24.160879   21.225517   13.049560    ( 0.0000,  0.0000,  0.0000)
 406 C     24.160879   21.225517   26.950440    ( 0.0000,  0.0000,  0.0000)
 407 C     24.160879   23.528797   13.887880    ( 0.0000,  0.0000,  0.0000)
 408 C     24.160879   23.528797   26.112080    ( 0.0000,  0.0000,  0.0000)
 409 C     24.160879   25.406437   15.463400    ( 0.0000,  0.0000,  0.0000)
 410 C     24.160879   25.406437   24.536560    ( 0.0000,  0.0000,  0.0000)
 411 C     24.160879   26.631997   17.586120    ( 0.0000,  0.0000,  0.0000)
 412 C     24.160879   26.631997   22.413840    ( 0.0000,  0.0000,  0.0000)
 413 C     24.160879   27.057637   20.000000    ( 0.0000,  0.0000,  0.0000)
 414 C     24.871392   13.049517   18.774440    ( 0.0000,  0.0000,  0.0000)
 415 C     24.871392   13.049517   21.225520    ( 0.0000,  0.0000,  0.0000)
 416 C     24.871392   13.887837   16.471160    ( 0.0000,  0.0000,  0.0000)
 417 C     24.871392   13.887837   23.528800    ( 0.0000,  0.0000,  0.0000)
 418 C     24.871392   15.463397   14.593520    ( 0.0000,  0.0000,  0.0000)
 419 C     24.871392   15.463397   25.406480    ( 0.0000,  0.0000,  0.0000)
 420 C     24.871392   17.586117   13.367960    ( 0.0000,  0.0000,  0.0000)
 421 C     24.871392   17.586117   26.632000    ( 0.0000,  0.0000,  0.0000)
 422 C     24.871392   19.999957   12.942320    ( 0.0000,  0.0000,  0.0000)
 423 C     24.871392   19.999957   27.057640    ( 0.0000,  0.0000,  0.0000)
 424 C     24.871392   22.413837   13.367960    ( 0.0000,  0.0000,  0.0000)
 425 C     24.871392   22.413837   26.632000    ( 0.0000,  0.0000,  0.0000)
 426 C     24.871392   24.536557   14.593520    ( 0.0000,  0.0000,  0.0000)
 427 C     24.871392   24.536557   25.406480    ( 0.0000,  0.0000,  0.0000)
 428 C     24.871392   26.112077   16.471160    ( 0.0000,  0.0000,  0.0000)
 429 C     24.871392   26.112077   23.528800    ( 0.0000,  0.0000,  0.0000)
 430 C     24.871392   26.950397   18.774440    ( 0.0000,  0.0000,  0.0000)
 431 C     24.871392   26.950397   21.225520    ( 0.0000,  0.0000,  0.0000)
 432 C     15.644837   16.316307   30.522320    ( 0.0000,  0.0000,  0.0000)
 433 C     15.644837   18.772317   30.522320    ( 0.0000,  0.0000,  0.0000)
 434 C     15.644837   21.228297   30.522320    ( 0.0000,  0.0000,  0.0000)
 435 C     15.644837   23.684307   30.522320    ( 0.0000,  0.0000,  0.0000)
 436 H     15.837862   14.194587   30.522320    ( 0.0000,  0.0000,  0.0000)
 437 H     15.837862   25.806027   30.522320    ( 0.0000,  0.0000,  0.0000)
 438 C     16.353844   15.088317   30.522320    ( 0.0000,  0.0000,  0.0000)
 439 C     16.353844   17.544327   30.522320    ( 0.0000,  0.0000,  0.0000)
 440 C     16.353844   20.000307   30.522320    ( 0.0000,  0.0000,  0.0000)
 441 C     16.353844   22.456317   30.522320    ( 0.0000,  0.0000,  0.0000)
 442 C     16.353844   24.912297   30.522320    ( 0.0000,  0.0000,  0.0000)
 443 C     17.771792   15.088317   30.522320    ( 0.0000,  0.0000,  0.0000)
 444 C     17.771792   17.544327   30.522320    ( 0.0000,  0.0000,  0.0000)
 445 C     17.771792   20.000307   30.522320    ( 0.0000,  0.0000,  0.0000)
 446 C     17.771792   22.456317   30.522320    ( 0.0000,  0.0000,  0.0000)
 447 C     17.771792   24.912297   30.522320    ( 0.0000,  0.0000,  0.0000)
 448 H     18.287842   14.194587   30.522320    ( 0.0000,  0.0000,  0.0000)
 449 H     18.287842   25.806027   30.522320    ( 0.0000,  0.0000,  0.0000)
 450 C     18.480799   16.316307   30.522320    ( 0.0000,  0.0000,  0.0000)
 451 C     18.480799   18.772317   30.522320    ( 0.0000,  0.0000,  0.0000)
 452 C     18.480799   21.228297   30.522320    ( 0.0000,  0.0000,  0.0000)
 453 C     18.480799   23.684307   30.522320    ( 0.0000,  0.0000,  0.0000)
 454 C     19.898747   16.316307   30.522320    ( 0.0000,  0.0000,  0.0000)
 455 C     19.898747   18.772317   30.522320    ( 0.0000,  0.0000,  0.0000)
 456 C     19.898747   21.228297   30.522320    ( 0.0000,  0.0000,  0.0000)
 457 C     19.898747   23.684307   30.522320    ( 0.0000,  0.0000,  0.0000)
 458 H     20.091772   14.194587   30.522320    ( 0.0000,  0.0000,  0.0000)
 459 H     20.091772   25.806027   30.522320    ( 0.0000,  0.0000,  0.0000)
 460 C     20.607754   15.088317   30.522320    ( 0.0000,  0.0000,  0.0000)
 461 C     20.607754   17.544327   30.522320    ( 0.0000,  0.0000,  0.0000)
 462 C     20.607754   20.000307   30.522320    ( 0.0000,  0.0000,  0.0000)
 463 C     20.607754   22.456317   30.522320    ( 0.0000,  0.0000,  0.0000)
 464 C     20.607754   24.912297   30.522320    ( 0.0000,  0.0000,  0.0000)
 465 C     22.025702   15.088317   30.522320    ( 0.0000,  0.0000,  0.0000)
 466 C     22.025702   17.544327   30.522320    ( 0.0000,  0.0000,  0.0000)
 467 C     22.025702   20.000307   30.522320    ( 0.0000,  0.0000,  0.0000)
 468 C     22.025702   22.456317   30.522320    ( 0.0000,  0.0000,  0.0000)
 469 C     22.025702   24.912297   30.522320    ( 0.0000,  0.0000,  0.0000)
 470 H     22.541752   14.194587   30.522320    ( 0.0000,  0.0000,  0.0000)
 471 H     22.541752   25.806027   30.522320    ( 0.0000,  0.0000,  0.0000)
 472 C     22.734709   16.316307   30.522320    ( 0.0000,  0.0000,  0.0000)
 473 C     22.734709   18.772317   30.522320    ( 0.0000,  0.0000,  0.0000)
 474 C     22.734709   21.228297   30.522320    ( 0.0000,  0.0000,  0.0000)
 475 C     22.734709   23.684307   30.522320    ( 0.0000,  0.0000,  0.0000)
 476 C     24.152657   16.316307   30.522320    ( 0.0000,  0.0000,  0.0000)
 477 C     24.152657   18.772317   30.522320    ( 0.0000,  0.0000,  0.0000)
 478 C     24.152657   21.228297   30.522320    ( 0.0000,  0.0000,  0.0000)
 479 C     24.152657   23.684307   30.522320    ( 0.0000,  0.0000,  0.0000)
 480 H     24.345682   14.194587   30.522320    ( 0.0000,  0.0000,  0.0000)
 481 H     24.345682   25.806027   30.522320    ( 0.0000,  0.0000,  0.0000)
 482 C     24.861665   15.088317   30.522320    ( 0.0000,  0.0000,  0.0000)
 483 C     24.861665   17.544327   30.522320    ( 0.0000,  0.0000,  0.0000)
 484 C     24.861665   20.000307   30.522320    ( 0.0000,  0.0000,  0.0000)
 485 C     24.861665   22.456317   30.522320    ( 0.0000,  0.0000,  0.0000)
 486 C     24.861665   24.912297   30.522320    ( 0.0000,  0.0000,  0.0000)
 487 C     26.279612   15.088317   30.522320    ( 0.0000,  0.0000,  0.0000)
 488 C     26.279612   17.544327   30.522320    ( 0.0000,  0.0000,  0.0000)
 489 C     26.279612   20.000307   30.522320    ( 0.0000,  0.0000,  0.0000)
 490 C     26.279612   22.456317   30.522320    ( 0.0000,  0.0000,  0.0000)
 491 C     26.279612   24.912297   30.522320    ( 0.0000,  0.0000,  0.0000)
 492 H     26.795662   14.194587   30.522320    ( 0.0000,  0.0000,  0.0000)
 493 H     26.795662   25.806027   30.522320    ( 0.0000,  0.0000,  0.0000)
 494 C     26.988620   16.316307   30.522320    ( 0.0000,  0.0000,  0.0000)
 495 C     26.988620   18.772317   30.522320    ( 0.0000,  0.0000,  0.0000)
 496 C     26.988620   21.228297   30.522320    ( 0.0000,  0.0000,  0.0000)
 497 C     26.988620   23.684307   30.522320    ( 0.0000,  0.0000,  0.0000)
 498 C     28.406567   16.316307   30.522320    ( 0.0000,  0.0000,  0.0000)
 499 C     28.406567   18.772317   30.522320    ( 0.0000,  0.0000,  0.0000)
 500 C     28.406567   21.228297   30.522320    ( 0.0000,  0.0000,  0.0000)
 501 C     28.406567   23.684307   30.522320    ( 0.0000,  0.0000,  0.0000)
 502 H     28.599592   14.194587   30.522320    ( 0.0000,  0.0000,  0.0000)
 503 H     28.599592   25.806027   30.522320    ( 0.0000,  0.0000,  0.0000)
 504 C     29.115575   15.088317   30.522320    ( 0.0000,  0.0000,  0.0000)
 505 C     29.115575   17.544327   30.522320    ( 0.0000,  0.0000,  0.0000)
 506 C     29.115575   20.000337   30.522320    ( 0.0000,  0.0000,  0.0000)
 507 C     29.115575   22.456317   30.522320    ( 0.0000,  0.0000,  0.0000)
 508 C     29.115575   24.912297   30.522320    ( 0.0000,  0.0000,  0.0000)
 509 C     30.533522   15.088317   30.522320    ( 0.0000,  0.0000,  0.0000)
 510 C     30.533522   17.544327   30.522320    ( 0.0000,  0.0000,  0.0000)
 511 C     30.533522   20.000307   30.522320    ( 0.0000,  0.0000,  0.0000)
 512 C     30.533522   22.456317   30.522320    ( 0.0000,  0.0000,  0.0000)
 513 C     30.533522   24.912297   30.522320    ( 0.0000,  0.0000,  0.0000)
 514 H     31.049571   14.194587   30.522320    ( 0.0000,  0.0000,  0.0000)
 515 H     31.049571   25.806027   30.522320    ( 0.0000,  0.0000,  0.0000)
 516 C     31.242529   16.316307   30.522320    ( 0.0000,  0.0000,  0.0000)
 517 C     31.242529   18.772317   30.522320    ( 0.0000,  0.0000,  0.0000)
 518 C     31.242529   21.228297   30.522320    ( 0.0000,  0.0000,  0.0000)
 519 C     31.242529   23.684307   30.522320    ( 0.0000,  0.0000,  0.0000)
 520 C     32.660476   16.316307   30.522320    ( 0.0000,  0.0000,  0.0000)
 521 C     32.660476   18.772317   30.522320    ( 0.0000,  0.0000,  0.0000)
 522 C     32.660476   21.228297   30.522320    ( 0.0000,  0.0000,  0.0000)
 523 C     32.660476   23.684307   30.522320    ( 0.0000,  0.0000,  0.0000)
 524 H     32.853501   14.194587   30.522320    ( 0.0000,  0.0000,  0.0000)
 525 H     32.853501   25.806027   30.522320    ( 0.0000,  0.0000,  0.0000)
 526 C     33.369484   15.088317   30.522320    ( 0.0000,  0.0000,  0.0000)
 527 C     33.369484   17.544327   30.522320    ( 0.0000,  0.0000,  0.0000)
 528 C     33.369484   20.000307   30.522320    ( 0.0000,  0.0000,  0.0000)
 529 C     33.369484   22.456317   30.522320    ( 0.0000,  0.0000,  0.0000)
 530 C     33.369484   24.912297   30.522320    ( 0.0000,  0.0000,  0.0000)
 531 C     34.787431   15.088317   30.522320    ( 0.0000,  0.0000,  0.0000)
 532 C     34.787431   17.544327   30.522320    ( 0.0000,  0.0000,  0.0000)
 533 C     34.787431   20.000307   30.522320    ( 0.0000,  0.0000,  0.0000)
 534 C     34.787431   22.456317   30.522320    ( 0.0000,  0.0000,  0.0000)
 535 C     34.787431   24.912297   30.522320    ( 0.0000,  0.0000,  0.0000)
 536 H     35.303413   14.194587   30.522320    ( 0.0000,  0.0000,  0.0000)
 537 H     35.303413   25.806027   30.522320    ( 0.0000,  0.0000,  0.0000)
 538 C     35.496439   16.316307   30.522320    ( 0.0000,  0.0000,  0.0000)
 539 C     35.496439   18.772317   30.522320    ( 0.0000,  0.0000,  0.0000)
 540 C     35.496439   21.228297   30.522320    ( 0.0000,  0.0000,  0.0000)
 541 C     35.496439   23.684307   30.522320    ( 0.0000,  0.0000,  0.0000)
 542 C     36.914386   16.316307   30.522320    ( 0.0000,  0.0000,  0.0000)
 543 C     36.914386   18.772317   30.522320    ( 0.0000,  0.0000,  0.0000)
 544 C     36.914386   21.228297   30.522320    ( 0.0000,  0.0000,  0.0000)
 545 C     36.914386   23.684307   30.522320    ( 0.0000,  0.0000,  0.0000)
 546 H     37.107411   14.194587   30.522320    ( 0.0000,  0.0000,  0.0000)
 547 H     37.107411   25.806027   30.522320    ( 0.0000,  0.0000,  0.0000)
 548 C     37.623394   15.088317   30.522320    ( 0.0000,  0.0000,  0.0000)
 549 C     37.623394   17.544327   30.522320    ( 0.0000,  0.0000,  0.0000)
 550 C     37.623394   20.000307   30.522320    ( 0.0000,  0.0000,  0.0000)
 551 C     37.623394   22.456317   30.522320    ( 0.0000,  0.0000,  0.0000)
 552 C     37.623394   24.912297   30.522320    ( 0.0000,  0.0000,  0.0000)
 553 C     39.041341   15.088317   30.522320    ( 0.0000,  0.0000,  0.0000)
 554 C     39.041341   17.544327   30.522320    ( 0.0000,  0.0000,  0.0000)
 555 C     39.041341   20.000307   30.522320    ( 0.0000,  0.0000,  0.0000)
 556 C     39.041341   22.456317   30.522320    ( 0.0000,  0.0000,  0.0000)
 557 C     39.041341   24.912297   30.522320    ( 0.0000,  0.0000,  0.0000)
 558 H     39.557323   14.194587   30.522320    ( 0.0000,  0.0000,  0.0000)
 559 H     39.557323   25.806027   30.522320    ( 0.0000,  0.0000,  0.0000)
 560 C     39.750349   16.316307   30.522320    ( 0.0000,  0.0000,  0.0000)
 561 C     39.750349   18.772317   30.522320    ( 0.0000,  0.0000,  0.0000)
 562 C     39.750349   21.228297   30.522320    ( 0.0000,  0.0000,  0.0000)
 563 C     39.750349   23.684307   30.522320    ( 0.0000,  0.0000,  0.0000)
 564 C     41.168296   16.316307   30.522320    ( 0.0000,  0.0000,  0.0000)
 565 C     41.168296   18.772317   30.522320    ( 0.0000,  0.0000,  0.0000)
 566 C     41.168296   21.228297   30.522320    ( 0.0000,  0.0000,  0.0000)
 567 C     41.168296   23.684307   30.522320    ( 0.0000,  0.0000,  0.0000)
 568 H     41.361322   14.194587   30.522320    ( 0.0000,  0.0000,  0.0000)
 569 H     41.361322   25.806027   30.522320    ( 0.0000,  0.0000,  0.0000)
 570 C     41.877304   15.088317   30.522320    ( 0.0000,  0.0000,  0.0000)
 571 C     41.877304   17.544327   30.522320    ( 0.0000,  0.0000,  0.0000)
 572 C     41.877304   20.000307   30.522320    ( 0.0000,  0.0000,  0.0000)
 573 C     41.877304   22.456317   30.522320    ( 0.0000,  0.0000,  0.0000)
 574 C     41.877304   24.912297   30.522320    ( 0.0000,  0.0000,  0.0000)
 575 C     43.295251   15.088317   30.522320    ( 0.0000,  0.0000,  0.0000)
 576 C     43.295251   17.544327   30.522320    ( 0.0000,  0.0000,  0.0000)
 577 C     43.295251   20.000307   30.522320    ( 0.0000,  0.0000,  0.0000)
 578 C     43.295251   22.456317   30.522320    ( 0.0000,  0.0000,  0.0000)
 579 C     43.295251   24.912297   30.522320    ( 0.0000,  0.0000,  0.0000)
 580 H     43.811233   14.194587   30.522320    ( 0.0000,  0.0000,  0.0000)
 581 H     43.811233   25.806027   30.522320    ( 0.0000,  0.0000,  0.0000)
 582 C     44.004259   16.316307   30.522320    ( 0.0000,  0.0000,  0.0000)
 583 C     44.004259   18.772317   30.522320    ( 0.0000,  0.0000,  0.0000)
 584 C     44.004259   21.228297   30.522320    ( 0.0000,  0.0000,  0.0000)
 585 C     44.004259   23.684307   30.522320    ( 0.0000,  0.0000,  0.0000)
 586 C     45.422206   16.316307   30.522320    ( 0.0000,  0.0000,  0.0000)
 587 C     45.422206   18.772317   30.522320    ( 0.0000,  0.0000,  0.0000)
 588 C     45.422206   21.228297   30.522320    ( 0.0000,  0.0000,  0.0000)
 589 C     45.422206   23.684307   30.522320    ( 0.0000,  0.0000,  0.0000)
 590 H     45.615232   14.194587   30.522320    ( 0.0000,  0.0000,  0.0000)
 591 H     45.615232   25.806027   30.522320    ( 0.0000,  0.0000,  0.0000)
 592 C     46.131214   15.088317   30.522320    ( 0.0000,  0.0000,  0.0000)
 593 C     46.131214   17.544327   30.522320    ( 0.0000,  0.0000,  0.0000)
 594 C     46.131214   20.000307   30.522320    ( 0.0000,  0.0000,  0.0000)
 595 C     46.131214   22.456317   30.522320    ( 0.0000,  0.0000,  0.0000)
 596 C     46.131214   24.912297   30.522320    ( 0.0000,  0.0000,  0.0000)
 597 C     47.549161   15.088317   30.522320    ( 0.0000,  0.0000,  0.0000)
 598 C     47.549161   17.544327   30.522320    ( 0.0000,  0.0000,  0.0000)
 599 C     47.549161   20.000307   30.522320    ( 0.0000,  0.0000,  0.0000)
 600 C     47.549161   22.456317   30.522320    ( 0.0000,  0.0000,  0.0000)
 601 C     47.549161   24.912297   30.522320    ( 0.0000,  0.0000,  0.0000)
 602 H     48.065143   14.194587   30.522320    ( 0.0000,  0.0000,  0.0000)
 603 H     48.065143   25.806027   30.522320    ( 0.0000,  0.0000,  0.0000)
 604 C     48.258169   16.316307   30.522320    ( 0.0000,  0.0000,  0.0000)
 605 C     48.258169   18.772317   30.522320    ( 0.0000,  0.0000,  0.0000)
 606 C     48.258169   21.228297   30.522320    ( 0.0000,  0.0000,  0.0000)
 607 C     48.258169   23.684307   30.522320    ( 0.0000,  0.0000,  0.0000)
 608 C     49.676116   16.316307   30.522320    ( 0.0000,  0.0000,  0.0000)
 609 C     49.676116   18.772317   30.522320    ( 0.0000,  0.0000,  0.0000)
 610 C     49.676116   21.228297   30.522320    ( 0.0000,  0.0000,  0.0000)
 611 C     49.676116   23.684307   30.522320    ( 0.0000,  0.0000,  0.0000)
 612 H     49.869142   14.194587   30.522320    ( 0.0000,  0.0000,  0.0000)
 613 H     49.869142   25.806027   30.522320    ( 0.0000,  0.0000,  0.0000)
 614 C     50.385124   15.088317   30.522320    ( 0.0000,  0.0000,  0.0000)
 615 C     50.385124   17.544327   30.522320    ( 0.0000,  0.0000,  0.0000)
 616 C     50.385124   20.000307   30.522320    ( 0.0000,  0.0000,  0.0000)
 617 C     50.385124   22.456317   30.522320    ( 0.0000,  0.0000,  0.0000)
 618 C     50.385124   24.912297   30.522320    ( 0.0000,  0.0000,  0.0000)
 619 C     51.803071   15.088317   30.522320    ( 0.0000,  0.0000,  0.0000)
 620 C     51.803071   17.544327   30.522320    ( 0.0000,  0.0000,  0.0000)
 621 C     51.803071   20.000307   30.522320    ( 0.0000,  0.0000,  0.0000)
 622 C     51.803071   22.456317   30.522320    ( 0.0000,  0.0000,  0.0000)
 623 C     51.803071   24.912297   30.522320    ( 0.0000,  0.0000,  0.0000)
 624 H     52.319054   14.194587   30.522320    ( 0.0000,  0.0000,  0.0000)
 625 H     52.319054   25.806027   30.522320    ( 0.0000,  0.0000,  0.0000)
 626 C     52.512079   16.316307   30.522320    ( 0.0000,  0.0000,  0.0000)
 627 C     52.512079   18.772317   30.522320    ( 0.0000,  0.0000,  0.0000)
 628 C     52.512079   21.228297   30.522320    ( 0.0000,  0.0000,  0.0000)
 629 C     52.512079   23.684307   30.522320    ( 0.0000,  0.0000,  0.0000)
 630 C     53.930026   16.316307   30.522320    ( 0.0000,  0.0000,  0.0000)
 631 C     53.930026   18.772317   30.522320    ( 0.0000,  0.0000,  0.0000)
 632 C     53.930026   21.228297   30.522320    ( 0.0000,  0.0000,  0.0000)
 633 C     53.930026   23.684307   30.522320    ( 0.0000,  0.0000,  0.0000)
 634 H     54.122984   14.194587   30.522320    ( 0.0000,  0.0000,  0.0000)
 635 H     54.122984   25.806027   30.522320    ( 0.0000,  0.0000,  0.0000)
 636 C     54.639034   15.088317   30.522320    ( 0.0000,  0.0000,  0.0000)
 637 C     54.639034   17.544327   30.522320    ( 0.0000,  0.0000,  0.0000)
 638 C     54.639034   20.000307   30.522320    ( 0.0000,  0.0000,  0.0000)
 639 C     54.639034   22.456317   30.522320    ( 0.0000,  0.0000,  0.0000)
 640 C     54.639034   24.912297   30.522320    ( 0.0000,  0.0000,  0.0000)
 641 C     56.056981   15.088317   30.522320    ( 0.0000,  0.0000,  0.0000)
 642 C     56.056981   17.544327   30.522320    ( 0.0000,  0.0000,  0.0000)
 643 C     56.056981   20.000307   30.522320    ( 0.0000,  0.0000,  0.0000)
 644 C     56.056981   22.456317   30.522320    ( 0.0000,  0.0000,  0.0000)
 645 C     56.056981   24.912297   30.522320    ( 0.0000,  0.0000,  0.0000)
 646 H     56.572964   14.194587   30.522320    ( 0.0000,  0.0000,  0.0000)
 647 H     56.572964   25.806027   30.522320    ( 0.0000,  0.0000,  0.0000)
 648 C     56.765989   16.316307   30.522320    ( 0.0000,  0.0000,  0.0000)
 649 C     56.765989   18.772317   30.522320    ( 0.0000,  0.0000,  0.0000)
 650 C     56.765989   21.228297   30.522320    ( 0.0000,  0.0000,  0.0000)
 651 C     56.765989   23.684307   30.522320    ( 0.0000,  0.0000,  0.0000)
 652 C     58.183936   16.316307   30.522320    ( 0.0000,  0.0000,  0.0000)
 653 C     58.183936   18.772317   30.522320    ( 0.0000,  0.0000,  0.0000)
 654 C     58.183936   21.228297   30.522320    ( 0.0000,  0.0000,  0.0000)
 655 C     58.183936   23.684307   30.522320    ( 0.0000,  0.0000,  0.0000)
 656 H     58.376894   14.194587   30.522320    ( 0.0000,  0.0000,  0.0000)
 657 H     58.376894   25.806027   30.522320    ( 0.0000,  0.0000,  0.0000)
 658 C     58.892944   15.088317   30.522320    ( 0.0000,  0.0000,  0.0000)
 659 C     58.892944   17.544327   30.522320    ( 0.0000,  0.0000,  0.0000)
 660 C     58.892944   20.000307   30.522320    ( 0.0000,  0.0000,  0.0000)
 661 C     58.892944   22.456317   30.522320    ( 0.0000,  0.0000,  0.0000)
 662 C     58.892944   24.912297   30.522320    ( 0.0000,  0.0000,  0.0000)
 663 C     60.310890   15.088317   30.522320    ( 0.0000,  0.0000,  0.0000)
 664 C     60.310890   17.544327   30.522320    ( 0.0000,  0.0000,  0.0000)
 665 C     60.310890   20.000307   30.522320    ( 0.0000,  0.0000,  0.0000)
 666 C     60.310890   22.456317   30.522320    ( 0.0000,  0.0000,  0.0000)
 667 C     60.310890   24.912297   30.522320    ( 0.0000,  0.0000,  0.0000)
 668 H     60.826873   14.194587   30.522320    ( 0.0000,  0.0000,  0.0000)
 669 H     60.826873   25.806027   30.522320    ( 0.0000,  0.0000,  0.0000)
 670 C     61.019898   16.316307   30.522320    ( 0.0000,  0.0000,  0.0000)
 671 C     61.019898   18.772317   30.522320    ( 0.0000,  0.0000,  0.0000)
 672 C     61.019898   21.228297   30.522320    ( 0.0000,  0.0000,  0.0000)
 673 C     61.019898   23.684307   30.522320    ( 0.0000,  0.0000,  0.0000)
 674 C     62.437845   16.316307   30.522320    ( 0.0000,  0.0000,  0.0000)
 675 C     62.437845   18.772317   30.522320    ( 0.0000,  0.0000,  0.0000)
 676 C     62.437845   21.228297   30.522320    ( 0.0000,  0.0000,  0.0000)
 677 C     62.437845   23.684307   30.522320    ( 0.0000,  0.0000,  0.0000)
 678 H     62.630803   14.194587   30.522320    ( 0.0000,  0.0000,  0.0000)
 679 H     62.630803   25.806027   30.522320    ( 0.0000,  0.0000,  0.0000)
 680 C     63.146853   15.088317   30.522320    ( 0.0000,  0.0000,  0.0000)
 681 C     63.146853   17.544327   30.522320    ( 0.0000,  0.0000,  0.0000)
 682 C     63.146853   20.000307   30.522320    ( 0.0000,  0.0000,  0.0000)
 683 C     63.146853   22.456317   30.522320    ( 0.0000,  0.0000,  0.0000)
 684 C     63.146853   24.912297   30.522320    ( 0.0000,  0.0000,  0.0000)
 685 C     64.564800   15.088317   30.522320    ( 0.0000,  0.0000,  0.0000)
 686 C     64.564800   17.544327   30.522320    ( 0.0000,  0.0000,  0.0000)
 687 C     64.564800   20.000307   30.522320    ( 0.0000,  0.0000,  0.0000)
 688 C     64.564800   22.456317   30.522320    ( 0.0000,  0.0000,  0.0000)
 689 C     64.564800   24.912297   30.522320    ( 0.0000,  0.0000,  0.0000)
 690 H     65.080783   14.194587   30.522320    ( 0.0000,  0.0000,  0.0000)
 691 H     65.080783   25.806027   30.522320    ( 0.0000,  0.0000,  0.0000)
 692 C     65.273808   16.316307   30.522320    ( 0.0000,  0.0000,  0.0000)
 693 C     65.273808   18.772317   30.522320    ( 0.0000,  0.0000,  0.0000)
 694 C     65.273808   21.228297   30.522320    ( 0.0000,  0.0000,  0.0000)
 695 C     65.273808   23.684307   30.522320    ( 0.0000,  0.0000,  0.0000)
 696 C     66.691755   16.316307   30.522320    ( 0.0000,  0.0000,  0.0000)
 697 C     66.691755   18.772317   30.522320    ( 0.0000,  0.0000,  0.0000)
 698 C     66.691755   21.228297   30.522320    ( 0.0000,  0.0000,  0.0000)
 699 C     66.691755   23.684307   30.522320    ( 0.0000,  0.0000,  0.0000)
 700 H     66.884713   14.194587   30.522320    ( 0.0000,  0.0000,  0.0000)
 701 H     66.884713   25.806027   30.522320    ( 0.0000,  0.0000,  0.0000)
 702 C     67.400763   15.088317   30.522320    ( 0.0000,  0.0000,  0.0000)
 703 C     67.400763   17.544327   30.522320    ( 0.0000,  0.0000,  0.0000)
 704 C     67.400763   20.000307   30.522320    ( 0.0000,  0.0000,  0.0000)
 705 C     67.400763   22.456317   30.522320    ( 0.0000,  0.0000,  0.0000)
 706 C     67.400763   24.912297   30.522320    ( 0.0000,  0.0000,  0.0000)
 707 C     68.818711   15.088317   30.522320    ( 0.0000,  0.0000,  0.0000)
 708 C     68.818711   17.544327   30.522320    ( 0.0000,  0.0000,  0.0000)
[...]
 963 C     82.304085   27.057640   20.000000    ( 0.0000,  0.0000,  0.0000)
 964 C     83.725085   12.942320   20.000000    ( 0.0000,  0.0000,  0.0000)
 965 C     83.725085   13.367957   17.586120    ( 0.0000,  0.0000,  0.0000)
 966 C     83.725085   13.367957   22.413840    ( 0.0000,  0.0000,  0.0000)
 967 C     83.725085   14.593477   15.463400    ( 0.0000,  0.0000,  0.0000)
 968 C     83.725085   14.593477   24.536560    ( 0.0000,  0.0000,  0.0000)
 969 C     83.725085   16.471157   13.887880    ( 0.0000,  0.0000,  0.0000)
 970 C     83.725085   16.471157   26.112080    ( 0.0000,  0.0000,  0.0000)
 971 C     83.725085   18.774437   13.049560    ( 0.0000,  0.0000,  0.0000)
 972 C     83.725085   18.774437   26.950440    ( 0.0000,  0.0000,  0.0000)
 973 C     83.725085   21.225517   13.049560    ( 0.0000,  0.0000,  0.0000)
 974 C     83.725085   21.225517   26.950440    ( 0.0000,  0.0000,  0.0000)
 975 C     83.725085   23.528797   13.887880    ( 0.0000,  0.0000,  0.0000)
 976 C     83.725085   23.528797   26.112080    ( 0.0000,  0.0000,  0.0000)
 977 C     83.725085   25.406437   15.463400    ( 0.0000,  0.0000,  0.0000)
 978 C     83.725085   25.406437   24.536560    ( 0.0000,  0.0000,  0.0000)
 979 C     83.725085   26.631997   17.586120    ( 0.0000,  0.0000,  0.0000)
 980 C     83.725085   26.631997   22.413840    ( 0.0000,  0.0000,  0.0000)
 981 C     83.725085   27.057637   20.000000    ( 0.0000,  0.0000,  0.0000)
 982 C     84.435597   13.049517   18.774440    ( 0.0000,  0.0000,  0.0000)
 983 C     84.435597   13.049517   21.225520    ( 0.0000,  0.0000,  0.0000)
 984 C     84.435597   13.887837   16.471160    ( 0.0000,  0.0000,  0.0000)
 985 C     84.435597   13.887837   23.528800    ( 0.0000,  0.0000,  0.0000)
 986 C     84.435597   15.463397   14.593520    ( 0.0000,  0.0000,  0.0000)
 987 C     84.435597   15.463397   25.406480    ( 0.0000,  0.0000,  0.0000)
 988 C     84.435597   17.586117   13.367960    ( 0.0000,  0.0000,  0.0000)
 989 C     84.435597   17.586117   26.632000    ( 0.0000,  0.0000,  0.0000)
 990 C     84.435597   19.999957   12.942320    ( 0.0000,  0.0000,  0.0000)
 991 C     84.435597   19.999957   27.057640    ( 0.0000,  0.0000,  0.0000)
 992 C     84.435597   22.413837   13.367960    ( 0.0000,  0.0000,  0.0000)
 993 C     84.435597   22.413837   26.632000    ( 0.0000,  0.0000,  0.0000)
 994 C     84.435597   24.536557   14.593520    ( 0.0000,  0.0000,  0.0000)
 995 C     84.435597   24.536557   25.406480    ( 0.0000,  0.0000,  0.0000)
 996 C     84.435597   26.112077   16.471160    ( 0.0000,  0.0000,  0.0000)
 997 C     84.435597   26.112077   23.528800    ( 0.0000,  0.0000,  0.0000)
 998 C     84.435597   26.950397   18.774440    ( 0.0000,  0.0000,  0.0000)
 999 C     84.435597   26.950397   21.225520    ( 0.0000,  0.0000,  0.0000)
1000 C     85.856571   13.049517   18.774440    ( 0.0000,  0.0000,  0.0000)
1001 C     85.856571   13.049517   21.225520    ( 0.0000,  0.0000,  0.0000)
1002 C     85.856571   13.887837   16.471160    ( 0.0000,  0.0000,  0.0000)
1003 C     85.856571   13.887837   23.528800    ( 0.0000,  0.0000,  0.0000)
1004 C     85.856571   15.463397   14.593520    ( 0.0000,  0.0000,  0.0000)
1005 C     85.856571   15.463397   25.406480    ( 0.0000,  0.0000,  0.0000)
1006 C     85.856571   17.586117   13.367960    ( 0.0000,  0.0000,  0.0000)
1007 C     85.856571   17.586117   26.632000    ( 0.0000,  0.0000,  0.0000)
1008 C     85.856571   19.999957   12.942320    ( 0.0000,  0.0000,  0.0000)
1009 C     85.856571   19.999957   27.057640    ( 0.0000,  0.0000,  0.0000)
1010 C     85.856571   22.413837   13.367960    ( 0.0000,  0.0000,  0.0000)
1011 C     85.856571   22.413837   26.632000    ( 0.0000,  0.0000,  0.0000)
1012 C     85.856571   24.536557   14.593520    ( 0.0000,  0.0000,  0.0000)
1013 C     85.856571   24.536557   25.406480    ( 0.0000,  0.0000,  0.0000)
1014 C     85.856571   26.112077   16.471160    ( 0.0000,  0.0000,  0.0000)
1015 C     85.856571   26.112077   23.528800    ( 0.0000,  0.0000,  0.0000)
1016 C     85.856571   26.950397   18.774440    ( 0.0000,  0.0000,  0.0000)
1017 C     85.856571   26.950397   21.225520    ( 0.0000,  0.0000,  0.0000)
1018 C     86.567748   12.942320   20.000000    ( 0.0000,  0.0000,  0.0000)
1019 C     86.567748   13.367957   17.586120    ( 0.0000,  0.0000,  0.0000)
1020 C     86.567748   13.367957   22.413840    ( 0.0000,  0.0000,  0.0000)
1021 C     86.567748   14.593477   15.463400    ( 0.0000,  0.0000,  0.0000)
1022 C     86.567748   14.593477   24.536560    ( 0.0000,  0.0000,  0.0000)
1023 C     86.567748   16.471157   13.887880    ( 0.0000,  0.0000,  0.0000)
1024 C     86.567748   16.471157   26.112080    ( 0.0000,  0.0000,  0.0000)
1025 C     86.567748   18.774437   13.049560    ( 0.0000,  0.0000,  0.0000)
1026 C     86.567748   18.774437   26.950440    ( 0.0000,  0.0000,  0.0000)
1027 C     86.567748   21.225517   13.049560    ( 0.0000,  0.0000,  0.0000)
1028 C     86.567748   21.225517   26.950440    ( 0.0000,  0.0000,  0.0000)
1029 C     86.567748   23.528797   13.887880    ( 0.0000,  0.0000,  0.0000)
1030 C     86.567748   23.528797   26.112080    ( 0.0000,  0.0000,  0.0000)
1031 C     86.567748   25.406437   15.463400    ( 0.0000,  0.0000,  0.0000)
1032 C     86.567748   25.406437   24.536560    ( 0.0000,  0.0000,  0.0000)
1033 C     86.567748   26.631997   17.586120    ( 0.0000,  0.0000,  0.0000)
1034 C     86.567748   26.631997   22.413840    ( 0.0000,  0.0000,  0.0000)
1035 C     86.567748   27.057637   20.000000    ( 0.0000,  0.0000,  0.0000)
1036 C     87.988748   12.942320   20.000000    ( 0.0000,  0.0000,  0.0000)
1037 C     87.988748   13.367957   17.586120    ( 0.0000,  0.0000,  0.0000)
1038 C     87.988748   13.367957   22.413840    ( 0.0000,  0.0000,  0.0000)
1039 C     87.988748   14.593477   15.463400    ( 0.0000,  0.0000,  0.0000)
1040 C     87.988748   14.593477   24.536560    ( 0.0000,  0.0000,  0.0000)
1041 C     87.988748   16.471157   13.887880    ( 0.0000,  0.0000,  0.0000)
1042 C     87.988748   16.471157   26.112080    ( 0.0000,  0.0000,  0.0000)
1043 C     87.988748   18.774437   13.049560    ( 0.0000,  0.0000,  0.0000)
1044 C     87.988748   18.774437   26.950440    ( 0.0000,  0.0000,  0.0000)
1045 C     87.988748   21.225517   13.049560    ( 0.0000,  0.0000,  0.0000)
1046 C     87.988748   21.225517   26.950440    ( 0.0000,  0.0000,  0.0000)
1047 C     87.988748   23.528797   13.887880    ( 0.0000,  0.0000,  0.0000)
1048 C     87.988748   23.528797   26.112080    ( 0.0000,  0.0000,  0.0000)
1049 C     87.988748   25.406437   15.463400    ( 0.0000,  0.0000,  0.0000)
1050 C     87.988748   25.406437   24.536560    ( 0.0000,  0.0000,  0.0000)
1051 C     87.988748   26.631997   17.586120    ( 0.0000,  0.0000,  0.0000)
1052 C     87.988748   26.631997   22.413840    ( 0.0000,  0.0000,  0.0000)
1053 C     87.988748   27.057637   20.000000    ( 0.0000,  0.0000,  0.0000)
1054 C     88.699235   13.049517   18.774440    ( 0.0000,  0.0000,  0.0000)
1055 C     88.699235   13.049517   21.225520    ( 0.0000,  0.0000,  0.0000)
1056 C     88.699235   13.887837   16.471160    ( 0.0000,  0.0000,  0.0000)
1057 C     88.699235   13.887837   23.528800    ( 0.0000,  0.0000,  0.0000)
1058 C     88.699235   15.463397   14.593520    ( 0.0000,  0.0000,  0.0000)
1059 C     88.699235   15.463397   25.406480    ( 0.0000,  0.0000,  0.0000)
1060 C     88.699235   17.586117   13.367960    ( 0.0000,  0.0000,  0.0000)
1061 C     88.699235   17.586117   26.632000    ( 0.0000,  0.0000,  0.0000)
1062 C     88.699235   19.999957   12.942320    ( 0.0000,  0.0000,  0.0000)
1063 C     88.699235   19.999957   27.057640    ( 0.0000,  0.0000,  0.0000)
1064 C     88.699235   22.413837   13.367960    ( 0.0000,  0.0000,  0.0000)
1065 C     88.699235   22.413837   26.632000    ( 0.0000,  0.0000,  0.0000)
1066 C     88.699235   24.536557   14.593520    ( 0.0000,  0.0000,  0.0000)
1067 C     88.699235   24.536557   25.406480    ( 0.0000,  0.0000,  0.0000)
1068 C     88.699235   26.112077   16.471160    ( 0.0000,  0.0000,  0.0000)
1069 C     88.699235   26.112077   23.528800    ( 0.0000,  0.0000,  0.0000)
1070 C     88.699235   26.950397   18.774440    ( 0.0000,  0.0000,  0.0000)
1071 C     88.699235   26.950397   21.225520    ( 0.0000,  0.0000,  0.0000)
1072 C     90.120235   13.049517   18.774440    ( 0.0000,  0.0000,  0.0000)
1073 C     90.120235   13.049517   21.225520    ( 0.0000,  0.0000,  0.0000)
1074 C     90.120235   13.887837   16.471160    ( 0.0000,  0.0000,  0.0000)
1075 C     90.120235   13.887837   23.528800    ( 0.0000,  0.0000,  0.0000)
1076 C     90.120235   15.463397   14.593520    ( 0.0000,  0.0000,  0.0000)
1077 C     90.120235   15.463397   25.406480    ( 0.0000,  0.0000,  0.0000)
1078 C     90.120235   17.586117   13.367960    ( 0.0000,  0.0000,  0.0000)
1079 C     90.120235   17.586117   26.632000    ( 0.0000,  0.0000,  0.0000)
1080 C     90.120235   19.999957   12.942320    ( 0.0000,  0.0000,  0.0000)
1081 C     90.120235   19.999957   27.057640    ( 0.0000,  0.0000,  0.0000)
1082 C     90.120235   22.413837   13.367960    ( 0.0000,  0.0000,  0.0000)
1083 C     90.120235   22.413837   26.632000    ( 0.0000,  0.0000,  0.0000)
1084 C     90.120235   24.536557   14.593520    ( 0.0000,  0.0000,  0.0000)
1085 C     90.120235   24.536557   25.406480    ( 0.0000,  0.0000,  0.0000)
1086 C     90.120235   26.112077   16.471160    ( 0.0000,  0.0000,  0.0000)
1087 C     90.120235   26.112077   23.528800    ( 0.0000,  0.0000,  0.0000)
1088 C     90.120235   26.950397   18.774440    ( 0.0000,  0.0000,  0.0000)
1089 C     90.120235   26.950397   21.225520    ( 0.0000,  0.0000,  0.0000)
1090 C     90.831412   12.942320   20.000000    ( 0.0000,  0.0000,  0.0000)
1091 C     90.831412   13.367957   17.586120    ( 0.0000,  0.0000,  0.0000)
1092 C     90.831412   13.367957   22.413840    ( 0.0000,  0.0000,  0.0000)
1093 C     90.831412   14.593477   15.463400    ( 0.0000,  0.0000,  0.0000)
1094 C     90.831412   14.593477   24.536560    ( 0.0000,  0.0000,  0.0000)
1095 C     90.831412   16.471157   13.887880    ( 0.0000,  0.0000,  0.0000)
1096 C     90.831412   16.471157   26.112080    ( 0.0000,  0.0000,  0.0000)
1097 C     90.831412   18.774437   13.049560    ( 0.0000,  0.0000,  0.0000)
1098 C     90.831412   18.774437   26.950440    ( 0.0000,  0.0000,  0.0000)
1099 C     90.831412   21.225517   13.049560    ( 0.0000,  0.0000,  0.0000)
1100 C     90.831412   21.225517   26.950440    ( 0.0000,  0.0000,  0.0000)
1101 C     90.831412   23.528797   13.887880    ( 0.0000,  0.0000,  0.0000)
1102 C     90.831412   23.528797   26.112080    ( 0.0000,  0.0000,  0.0000)
1103 C     90.831412   25.406437   15.463400    ( 0.0000,  0.0000,  0.0000)
1104 C     90.831412   25.406437   24.536560    ( 0.0000,  0.0000,  0.0000)
1105 C     90.831412   26.631997   17.586120    ( 0.0000,  0.0000,  0.0000)
1106 C     90.831412   26.631997   22.413840    ( 0.0000,  0.0000,  0.0000)
1107 C     90.831412   27.057637   20.000000    ( 0.0000,  0.0000,  0.0000)
1108 C     92.252412   12.942320   20.000000    ( 0.0000,  0.0000,  0.0000)
1109 C     92.252412   13.367957   17.586120    ( 0.0000,  0.0000,  0.0000)
1110 C     92.252412   13.367957   22.413840    ( 0.0000,  0.0000,  0.0000)
1111 C     92.252412   14.593477   15.463400    ( 0.0000,  0.0000,  0.0000)
1112 C     92.252412   14.593477   24.536560    ( 0.0000,  0.0000,  0.0000)
1113 C     92.252412   16.471157   13.887880    ( 0.0000,  0.0000,  0.0000)
1114 C     92.252412   16.471157   26.112080    ( 0.0000,  0.0000,  0.0000)
1115 C     92.252412   18.774437   13.049560    ( 0.0000,  0.0000,  0.0000)
1116 C     92.252412   18.774437   26.950440    ( 0.0000,  0.0000,  0.0000)
1117 C     92.252412   21.225517   13.049560    ( 0.0000,  0.0000,  0.0000)
1118 C     92.252412   21.225517   26.950440    ( 0.0000,  0.0000,  0.0000)
1119 C     92.252412   23.528797   13.887880    ( 0.0000,  0.0000,  0.0000)
1120 C     92.252412   23.528797   26.112080    ( 0.0000,  0.0000,  0.0000)
1121 C     92.252412   25.406437   15.463400    ( 0.0000,  0.0000,  0.0000)
1122 C     92.252412   25.406437   24.536560    ( 0.0000,  0.0000,  0.0000)
1123 C     92.252412   26.631997   17.586120    ( 0.0000,  0.0000,  0.0000)
1124 C     92.252412   26.631997   22.413840    ( 0.0000,  0.0000,  0.0000)
1125 C     92.252412   27.057637   20.000000    ( 0.0000,  0.0000,  0.0000)
1126 C     92.962899   13.049517   18.774440    ( 0.0000,  0.0000,  0.0000)
1127 C     92.962899   13.049517   21.225520    ( 0.0000,  0.0000,  0.0000)
1128 C     92.962899   13.887837   16.471160    ( 0.0000,  0.0000,  0.0000)
1129 C     92.962899   13.887837   23.528800    ( 0.0000,  0.0000,  0.0000)
1130 C     92.962899   15.463397   14.593520    ( 0.0000,  0.0000,  0.0000)
1131 C     92.962899   15.463397   25.406480    ( 0.0000,  0.0000,  0.0000)
1132 C     92.962899   17.586117   13.367960    ( 0.0000,  0.0000,  0.0000)
1133 C     92.962899   17.586117   26.632000    ( 0.0000,  0.0000,  0.0000)
1134 C     92.962899   19.999957   12.942320    ( 0.0000,  0.0000,  0.0000)
1135 C     92.962899   19.999957   27.057640    ( 0.0000,  0.0000,  0.0000)
1136 C     92.962899   22.413837   13.367960    ( 0.0000,  0.0000,  0.0000)
1137 C     92.962899   22.413837   26.632000    ( 0.0000,  0.0000,  0.0000)
1138 C     92.962899   24.536557   14.593520    ( 0.0000,  0.0000,  0.0000)
1139 C     92.962899   24.536557   25.406480    ( 0.0000,  0.0000,  0.0000)
1140 C     92.962899   26.112077   16.471160    ( 0.0000,  0.0000,  0.0000)
1141 C     92.962899   26.112077   23.528800    ( 0.0000,  0.0000,  0.0000)
1142 C     92.962899   26.950397   18.774440    ( 0.0000,  0.0000,  0.0000)
1143 C     92.962899   26.950397   21.225520    ( 0.0000,  0.0000,  0.0000)
1144 C     94.383873   13.049517   18.774440    ( 0.0000,  0.0000,  0.0000)
1145 C     94.383873   13.049517   21.225520    ( 0.0000,  0.0000,  0.0000)
1146 C     94.383873   13.887837   16.471160    ( 0.0000,  0.0000,  0.0000)
1147 C     94.383873   13.887837   23.528800    ( 0.0000,  0.0000,  0.0000)
1148 C     94.383873   15.463397   14.593520    ( 0.0000,  0.0000,  0.0000)
1149 C     94.383873   15.463397   25.406480    ( 0.0000,  0.0000,  0.0000)
1150 C     94.383873   17.586117   13.367960    ( 0.0000,  0.0000,  0.0000)
1151 C     94.383873   17.586117   26.632000    ( 0.0000,  0.0000,  0.0000)
1152 C     94.383873   19.999957   12.942320    ( 0.0000,  0.0000,  0.0000)
1153 C     94.383873   22.413837   13.367960    ( 0.0000,  0.0000,  0.0000)
1154 C     94.383873   24.536557   25.406480    ( 0.0000,  0.0000,  0.0000)
1155 C     94.383873   26.112077   16.471160    ( 0.0000,  0.0000,  0.0000)
1156 C     94.383873   26.112077   23.528800    ( 0.0000,  0.0000,  0.0000)
1157 C     94.383873   26.950397   18.774440    ( 0.0000,  0.0000,  0.0000)
1158 C     94.383873   26.950397   21.225520    ( 0.0000,  0.0000,  0.0000)
1159 C     94.383899   19.999957   27.057640    ( 0.0000,  0.0000,  0.0000)
1160 C     94.383899   22.413837   26.632000    ( 0.0000,  0.0000,  0.0000)
1161 C     94.383899   24.536557   14.593520    ( 0.0000,  0.0000,  0.0000)
1162 C     95.095051   12.942320   20.000000    ( 0.0000,  0.0000,  0.0000)
1163 C     95.095051   13.367957   17.586120    ( 0.0000,  0.0000,  0.0000)
1164 C     95.095051   13.367957   22.413840    ( 0.0000,  0.0000,  0.0000)
1165 C     95.095051   14.593477   15.463400    ( 0.0000,  0.0000,  0.0000)
1166 C     95.095051   14.593477   24.536560    ( 0.0000,  0.0000,  0.0000)
1167 C     95.095051   16.471157   13.887880    ( 0.0000,  0.0000,  0.0000)
1168 C     95.095051   16.471157   26.112080    ( 0.0000,  0.0000,  0.0000)
1169 C     95.095051   18.774437   13.049560    ( 0.0000,  0.0000,  0.0000)
1170 C     95.095051   18.774437   26.950440    ( 0.0000,  0.0000,  0.0000)
1171 C     95.095051   21.225517   13.049560    ( 0.0000,  0.0000,  0.0000)
1172 C     95.095051   21.225517   26.950440    ( 0.0000,  0.0000,  0.0000)
1173 C     95.095051   23.528797   13.887880    ( 0.0000,  0.0000,  0.0000)
1174 C     95.095051   23.528797   26.112080    ( 0.0000,  0.0000,  0.0000)
1175 C     95.095051   25.406437   15.463400    ( 0.0000,  0.0000,  0.0000)
1176 C     95.095051   25.406437   24.536560    ( 0.0000,  0.0000,  0.0000)
1177 C     95.095051   26.631997   17.586120    ( 0.0000,  0.0000,  0.0000)
1178 C     95.095051   26.631997   22.413840    ( 0.0000,  0.0000,  0.0000)
1179 C     95.095051   27.057637   20.000000    ( 0.0000,  0.0000,  0.0000)
1180 C     96.516051   12.942320   20.000000    ( 0.0000,  0.0000,  0.0000)
1181 C     96.516051   13.367957   17.586120    ( 0.0000,  0.0000,  0.0000)
1182 C     96.516051   13.367957   22.413840    ( 0.0000,  0.0000,  0.0000)
1183 C     96.516051   14.593477   15.463400    ( 0.0000,  0.0000,  0.0000)
1184 C     96.516051   14.593477   24.536560    ( 0.0000,  0.0000,  0.0000)
1185 C     96.516051   16.471157   13.887880    ( 0.0000,  0.0000,  0.0000)
1186 C     96.516051   16.471157   26.112080    ( 0.0000,  0.0000,  0.0000)
1187 C     96.516051   18.774437   13.049560    ( 0.0000,  0.0000,  0.0000)
1188 C     96.516051   18.774437   26.950440    ( 0.0000,  0.0000,  0.0000)
1189 C     96.516051   21.225517   13.049560    ( 0.0000,  0.0000,  0.0000)
1190 C     96.516051   21.225517   26.950440    ( 0.0000,  0.0000,  0.0000)
1191 C     96.516051   23.528797   13.887880    ( 0.0000,  0.0000,  0.0000)
1192 C     96.516051   23.528797   26.112080    ( 0.0000,  0.0000,  0.0000)
1193 C     96.516051   25.406437   15.463400    ( 0.0000,  0.0000,  0.0000)
1194 C     96.516051   25.406437   24.536560    ( 0.0000,  0.0000,  0.0000)
1195 C     96.516051   26.631997   17.586120    ( 0.0000,  0.0000,  0.0000)
1196 C     96.516051   26.631997   22.413840    ( 0.0000,  0.0000,  0.0000)
1197 C     96.516051   27.057637   20.000000    ( 0.0000,  0.0000,  0.0000)
1198 C     97.226563   13.049517   18.774440    ( 0.0000,  0.0000,  0.0000)
1199 C     97.226563   13.049517   21.225520    ( 0.0000,  0.0000,  0.0000)
1200 C     97.226563   13.887837   16.471160    ( 0.0000,  0.0000,  0.0000)
1201 C     97.226563   13.887837   23.528800    ( 0.0000,  0.0000,  0.0000)
1202 C     97.226563   15.463397   14.593520    ( 0.0000,  0.0000,  0.0000)
1203 C     97.226563   15.463397   25.406480    ( 0.0000,  0.0000,  0.0000)
1204 C     97.226563   17.586117   13.367960    ( 0.0000,  0.0000,  0.0000)
1205 C     97.226563   17.586117   26.632000    ( 0.0000,  0.0000,  0.0000)
1206 C     97.226563   19.999957   12.942320    ( 0.0000,  0.0000,  0.0000)
1207 C     97.226563   22.413837   13.367960    ( 0.0000,  0.0000,  0.0000)
1208 C     97.226563   22.413837   26.632000    ( 0.0000,  0.0000,  0.0000)
1209 C     97.226563   24.536557   14.593520    ( 0.0000,  0.0000,  0.0000)
1210 C     97.226563   24.536557   25.406480    ( 0.0000,  0.0000,  0.0000)
1211 C     97.226563   26.112077   16.471160    ( 0.0000,  0.0000,  0.0000)
1212 C     97.226563   26.112077   23.528800    ( 0.0000,  0.0000,  0.0000)
1213 C     97.226563   26.950397   18.774440    ( 0.0000,  0.0000,  0.0000)
1214 C     97.226563   26.950397   21.225520    ( 0.0000,  0.0000,  0.0000)
1215 C     97.226592   19.999957   27.057640    ( 0.0000,  0.0000,  0.0000)

Unit cell:
           periodic     x           y           z      points  spacing
  1. axis:    yes   97.937126    0.000000    0.000000   488     0.2007
  2. axis:    yes    0.000000   40.000000    0.000000   200     0.2000
  3. axis:    yes    0.000000    0.000000   40.000000   200     0.2000

  Lengths:  97.937126  40.000000  40.000000
  Angles:   90.000000  90.000000  90.000000

Effective grid spacing dv^(1/3) = 0.2002

     iter     time        total  log10-change:
                         energy   eigst   dens
iter:   1 21:44:51 -10523.981568        c
iter:   2 22:27:24 -10510.101328        c -0.89
iter:   3 23:09:58 -10485.915369        c -0.91
iter:   4 23:52:41 -10437.485466        c -0.94
iter:   5 00:35:25 -10376.106913        c -1.01
