48
Lattice="7.233 0.0 0.0 0.0 11.8115117 0.0 0.0 0.0 10.2290692" Properties=species:S:1:pos:R:3 i=56 E=-4582.6172793001 pbc="T T T"
Au       0.00000000       0.00000000       0.00000000
Au       0.00000000       1.47643896       2.55726729
Au       0.00000000       2.95287792       0.00000000
Au       0.00000000       4.42931688       2.55726729
Au       0.00000000       5.90575584       0.00000000
Au       0.00000000       7.38219480       2.55726729
Au       0.00000000       8.85863375       0.00000000
Au       0.00000000      10.33507271       2.55726729
Au       0.00000000       0.00000000       5.11453458
Au       0.00000000       1.47643896       7.67180187
Au       0.00000000       2.95287792       5.11453458
Au       0.00000000       4.42931688       7.67180187
Au       0.00000000       5.90575584       5.11453458
Au       0.00000000       7.38219480       7.67180187
Au       0.00000000       8.85863375       5.11453458
Au       0.00000000      10.33507271       7.67180187
Au       2.41101472       0.00000000       3.40968972
Au       2.41101472       1.47643896       0.85242243
Au       2.41101472       2.95287792       3.40968972
Au       2.41101472       4.42931688       0.85242243
Au       2.41101472       5.90575584       3.40968972
Au       2.41101472       7.38219480       0.85242243
Au       2.41101472       8.85863375       3.40968972
Au       2.41101472      10.33507271       0.85242243
Au       2.41101472       0.00000000       8.52422430
Au       2.41101472       1.47643896       5.96695701
Au       2.41101472       2.95287792       8.52422430
Au       2.41101472       4.42931688       5.96695701
Au       2.41101472       5.90575584       8.52422430
Au       2.41101472       7.38219480       5.96695701
Au       2.41101472       8.85863375       8.52422430
Au       2.41101472      10.33507271       5.96695701
Au       4.82202945       0.00000000       1.70484486
Au       4.82202945       1.47643896       4.26211215
Au       4.82202945       2.95287792       1.70484486
Au       4.82202945       4.42931688       4.26211215
Au       4.82202945       5.90575584       1.70484486
Au       4.82202945       7.38219480       4.26211215
Au       4.82202945       8.85863375       1.70484486
Au       4.82202945      10.33507271       4.26211215
Au       4.82202945       0.00000000       6.81937944
Au       4.82202945       1.47643896       9.37664674
Au       4.82202945       2.95287792       6.81937944
Au       4.82202945       4.42931688       9.37664674
Au       4.82202945       5.90575584       6.81937944
Au       4.82202945       7.38219480       9.37664674
Au       4.82202945       8.85863375       6.81937944
Au       4.82202945      10.33507271       9.37664674
