720
 Atoms. Timestep: 100000
C -63.745 0 61.1963
C -63.745 0 65.8937
C -63.745 2.034 62.3707
C -63.745 2.034 64.7193
C -63.745 -2.034 64.7193
C -63.745 -2.034 62.3707
C -62.325 0 65.8937
C -62.325 2.034 62.3707
C -62.325 2.034 64.7193
C -62.325 0 61.1963
C -62.325 -2.034 64.7193
C -62.325 -2.034 62.3707
C -61.615 1.17433 61.511
C -61.615 1.17433 65.579
C -61.615 2.34866 63.545
C -61.615 -1.17433 65.579
C -61.615 -1.17433 61.511
C -61.615 -2.34866 63.545
C -60.195 1.17433 61.511
C -60.195 1.17433 65.579
C -60.195 2.34866 63.545
C -60.195 -1.17433 61.511
C -60.195 -1.17433 65.579
C -60.195 -2.34866 63.545
C -59.485 0 61.1963
C -59.485 0 65.8937
C -59.485 2.034 62.3707
C -59.485 2.034 64.7193
C -59.485 -2.034 64.7193
C -59.485 -2.034 62.3707
C -58.0482 -0.000988673 65.9416
C -58.0482 2.07703 62.3456
C -58.0481 2.07645 64.7435
C -58.0486 -7.70439e-05 61.1454
C -58.0482 -2.07841 64.7431
C -58.0486 -2.07709 62.3445
C -57.3497 1.2028 61.4605
C -57.3488 1.20178 65.6274
C -57.349 2.40513 63.5445
C -57.3492 -1.20424 65.6271
C -57.3497 -1.20333 61.4593
C -57.3494 -2.4063 63.5432
C -55.9086 1.20293 65.6312
C -55.9095 -1.20527 61.4554
C -55.9095 1.20407 61.4566
C -55.9089 2.40746 63.5443
C -55.9087 -1.20657 65.6304
C -55.9091 -2.40948 63.5425
C -55.2131 -0.000409721 61.1317
C -55.2119 -0.00198059 65.9549
C -55.2123 2.08502 62.3393
C -55.2116 2.08433 64.7489
C -55.2121 -2.08768 64.7471
C -55.2125 -2.08696 62.3376
C -53.7711 -0.00294987 65.9537
C -53.7723 2.085 62.3386
C -53.7713 2.08327 64.7485
C -53.7723 -0.000955301 61.1314
C -53.7716 -2.0881 64.7467
C -53.772 -2.08728 62.3367
C -53.0758 1.20383 61.4555
C -53.0746 1.20149 65.6305
C -53.0753 2.40683 63.5436
C -53.0747 -1.20803 65.63
C -53.0757 -1.20596 61.454
C -53.0751 -2.40938 63.5412
C -51.6352 1.20398 61.4554
C -51.6346 1.20141 65.6302
C -51.6353 2.4068 63.5433
C -51.634 -1.20791 65.6292
C -51.6348 -1.20568 61.4536
C -51.6344 -2.41043 63.5406
C -50.9383 -0.000289479 61.1313
C -50.9376 -0.00320235 65.9528
C -50.9387 2.08429 62.3386
C -50.9386 2.08326 64.7477
C -50.9376 -2.08841 64.7455
C -50.938 -2.08747 62.3357
C -49.497 -0.00285263 65.9527
C -49.4981 2.08576 62.3384
C -49.4981 2.08427 64.7478
C -49.4977 0.000605976 61.1313
C -49.4968 -2.08728 64.7446
C -49.4971 -2.08676 62.3349
C -48.8012 1.20252 65.6297
C -48.8001 -1.20682 65.6277
C -48.8008 -1.20451 61.4527
C -48.8002 -2.40942 63.5394
C -48.8014 1.20484 61.4557
C -48.8016 2.40822 63.5433
C -47.361 1.20638 61.4553
C -47.3607 1.20307 65.6291
C -47.361 2.40936 63.543
C -47.3595 -1.20637 65.6277
C -47.3597 -1.20315 61.4519
C -47.3595 -2.40793 63.5386
C -46.6638 0.00271131 61.1298
C -46.6639 -0.00152908 65.9518
C -46.6646 2.08741 62.3381
C -46.6643 2.08544 64.7472
C -46.6628 -2.08633 64.7437
C -46.6627 -2.08425 62.3341
C -45.2232 -0.00140593 65.9508
C -45.2241 2.089 62.3371
C -45.2238 2.08578 64.7467
C -45.2228 0.0035325 61.1292
C -45.2225 -2.08672 64.7434
C -45.2224 -2.08338 62.3339
C -44.5272 1.20947 61.453
C -44.5272 1.20368 65.6285
C -44.5276 2.41013 63.5423
C -44.5266 -1.20577 65.6264
C -44.5256 -1.20067 61.4528
C -44.5257 -2.40818 63.5377
C -43.0862 1.2107 61.4531
C -43.0868 1.20278 65.6282
C -43.0869 2.41033 63.5425
C -43.0863 -1.20634 65.6262
C -43.0851 -1.199 61.453
C -43.0852 -2.40731 63.5376
C -42.3894 0.00619977 61.1305
C -42.39 -0.00207518 65.9505
C -42.3902 2.09189 62.3368
C -42.3903 2.08504 64.7464
C -42.3894 -2.08768 64.7435
C -42.3884 -2.08105 62.334
C -40.9495 -0.00258918 65.9502
C -40.9485 0.006927 61.1308
C -40.9488 -2.0877 64.7436
C -40.9483 -2.08068 62.3343
C -40.9493 2.09219 62.3377
C -40.95 2.08545 64.7473
C -40.2523 1.21175 61.4541
C -40.2535 1.20247 65.628
C -40.2531 2.41075 63.5438
C -40.2526 -1.20726 65.6271
C -40.2518 -1.19757 61.4536
C -40.2519 -2.40727 63.5379
C -38.8128 1.20292 65.6286
C -38.8113 -1.19737 61.4533
C -38.8113 1.21255 61.4546
C -38.8125 2.41213 63.5443
C -38.812 -1.20636 65.6266
C -38.8113 -2.40691 63.5374
C -38.1148 0.00773939 61.1311
C -38.1159 -0.00176155 65.9504
C -38.1154 2.09258 62.339
C -38.116 2.0865 64.7482
C -38.1151 -2.08625 64.7425
C -38.1149 -2.0813 62.333
C -36.6755 -0.001201 65.9504
C -36.6745 2.0937 62.3397
C -36.6754 2.08763 64.7492
C -36.6739 0.00843772 61.1319
C -36.6749 -2.08574 64.7426
C -36.6744 -2.08118 62.3329
C -35.9776 1.21309 61.4568
C -35.979 1.20445 65.6301
C -35.9784 2.41424 63.5457
C -35.9788 -1.205 65.6258
C -35.9775 -1.19691 61.453
C -35.9782 -2.40591 63.5373
C -34.5369 -1.19683 61.4531
C -34.5369 1.21317 61.4578
C -34.5386 1.20505 65.6312
C -34.5377 2.41375 63.5468
C -34.5384 -1.20474 65.6264
C -34.5377 -2.40572 63.5379
C -33.8405 0.0086152 61.133
C -33.8422 -0.000334012 65.9519
C -33.8405 2.09355 62.3417
C -33.8416 2.08908 64.7514
C -33.8417 -2.08515 64.7433
C -33.841 -2.08063 62.3338
C -32.4016 -0.000738384 65.9532
C -32.4002 2.0935 62.3425
C -32.4009 2.08833 64.7521
C -32.4 0.0085973 61.1347
C -32.4014 -2.08494 64.744
C -32.4006 -2.08114 62.3346
C -31.7034 1.2123 61.46
C -31.7045 1.20444 65.6325
C -31.7038 2.41393 63.5483
C -31.7054 -1.20532 65.6287
C -31.704 -1.19706 61.4549
C -31.7045 -2.40564 63.5393
C -30.2631 1.21219 61.4595
C -30.2635 1.20399 65.6334
C -30.2631 2.41279 63.5488
C -30.2636 -1.19715 61.456
C -30.2645 -1.2061 65.6289
C -30.2643 -2.40665 63.54
C -29.567 0.00774746 61.1342
C -29.5673 -0.00194234 65.9538
C -29.5666 2.09208 62.3434
C -29.5665 2.08711 64.7533
C -29.5678 -2.08666 64.7455
C -29.5672 -2.08109 62.3359
C -28.1265 -0.00307656 65.9545
C -28.1259 2.09097 62.3434
C -28.126 2.0855 64.7532
C -28.1268 0.00682273 61.1339
C -28.127 -2.08719 64.7453
C -28.1269 -2.08184 62.336
C -27.4301 1.21079 61.4594
C -27.4296 1.20169 65.6334
C -27.4293 2.4105 63.5489
C -27.43 -1.20754 65.6295
C -27.4303 -1.1988 61.4552
C -27.4302 -2.40733 63.54
C -25.99 1.20993 61.4592
C -25.9894 1.20166 65.6332
C -25.989 2.40972 63.5488
C -25.9894 -1.20768 65.63
C -25.9902 -1.1992 61.4555
C -25.9897 -2.40725 63.5401
C -25.2937 0.00601963 61.1338
C -25.2928 -0.00370822 65.9552
C -25.293 2.08911 62.343
C -25.2928 2.08485 64.7527
C -25.2932 -2.08749 64.7457
C -25.2933 -2.08217 62.3361
C -23.8525 -0.00329271 65.9553
C -23.8527 2.08945 62.3424
C -23.8525 2.08446 64.7525
C -23.8532 0.00558572 61.1325
C -23.8524 -2.08677 64.7455
C -23.8531 -2.08148 62.3362
C -23.1563 1.20996 61.4574
C -23.156 1.202 65.6339
C -23.1559 2.40891 63.548
C -23.1559 -1.20739 65.6297
C -23.1568 -1.19977 61.4541
C -23.1561 -2.40589 63.54
C -21.7159 1.20923 61.4581
C -21.7157 1.20309 65.634
C -21.716 2.40922 63.5479
C -21.7159 -1.20062 61.4534
C -21.7153 -1.20681 65.6298
C -21.7154 -2.40641 63.5397
C -21.0195 0.00494365 61.1324
C -21.0192 -0.00211797 65.9547
C -21.0197 2.0886 62.3426
C -21.0196 2.08639 64.7526
C -21.0186 -2.08603 64.745
C -21.0189 -2.08268 62.3354
C -19.5785 -0.000921921 65.9539
C -19.5795 2.08869 62.3419
C -19.5791 2.08725 64.7518
C -19.5787 0.00443726 61.1326
C -19.5782 -2.08532 64.7448
C -19.5784 -2.08306 62.335
C -18.8826 1.20882 61.4583
C -18.8823 1.2048 65.6328
C -18.883 2.41024 63.5468
C -18.8818 -1.2048 65.6285
C -18.8821 -1.2008 61.4534
C -18.8818 -2.40622 63.5394
C -17.4423 1.20971 61.4573
C -17.4418 1.20547 65.6323
C -17.4427 2.41131 63.5462
C -17.4415 -1.20413 65.6288
C -17.4415 -1.20008 61.453
C -17.4413 -2.4058 63.5396
C -16.7457 0.00561048 61.1318
C -16.7453 0.000478168 65.9539
C -16.7459 2.08975 62.3413
C -16.746 2.08853 64.7512
C -16.7447 -2.08378 64.745
C -16.7449 -2.08228 62.3348
C -15.3047 0.00187469 65.9537
C -15.3053 2.09042 62.3412
C -15.3056 2.08958 64.7509
C -15.3048 0.00616677 61.1323
C -15.304 -2.08289 64.7447
C -15.3042 -2.08199 62.3351
C -14.6085 1.21025 61.458
C -14.609 1.2077 65.6327
C -14.6088 2.41264 63.546
C -14.6076 -1.20173 65.6281
C -14.6085 -1.19925 61.453
C -14.6073 -2.40445 63.5399
C -13.1681 1.21076 61.4577
C -13.168 1.20862 65.6321
C -13.1681 2.41389 63.5458
C -13.1671 -1.20099 65.6283
C -13.1678 -1.19862 61.4536
C -13.167 -2.40374 63.5401
C -12.4715 0.00676919 61.1323
C -12.471 0.00362642 65.9531
C -12.4715 2.09164 62.3403
C -12.4713 2.09083 64.7501
C -12.4706 -2.08167 64.7453
C -12.4707 -2.08121 62.3351
C -11.0305 0.00411383 65.9521
C -11.031 2.09226 62.3391
C -11.0305 2.09173 64.7491
C -11.0309 0.00687816 61.1328
C -11.0304 -2.08143 64.7453
C -11.0305 -2.08031 62.3359
C -10.3344 1.21148 61.4562
C -10.3338 1.20928 65.6304
C -10.3339 2.41426 63.5437
C -10.334 -1.20043 65.6282
C -10.3342 -1.19795 61.4546
C -10.3337 -2.40338 63.5404
C -8.89341 1.21126 61.455
C -8.89322 1.20878 65.6292
C -8.89312 2.41447 63.5427
C -8.8936 -1.19819 61.4539
C -8.89343 -1.20083 65.6287
C -8.89371 -2.40311 63.5406
C -8.19678 0.00650274 61.1313
C -8.19684 0.00410346 65.9513
C -8.19663 2.09269 62.3374
C -8.19637 2.09072 64.7469
C -8.19725 -2.08216 64.7459
C -8.19718 -2.08013 62.3359
C -6.75645 0.00423473 65.9509
C -6.75576 2.09257 62.3369
C -6.75597 2.09101 64.7465
C -6.75623 0.00627176 61.1313
C -6.75682 -2.08216 64.7455
C -6.75659 -2.0805 62.336
C -6.05907 1.2108 61.4544
C -6.05957 1.20898 65.6285
C -6.0591 2.41413 63.542
C -6.06002 -1.20038 65.6275
C -6.05986 -1.19879 61.4544
C -6.06029 -2.40472 63.5405
C -4.61835 1.20913 61.4553
C -4.61908 1.20842 65.6281
C -4.61839 2.41378 63.5421
C -4.61941 -1.20122 65.6271
C -4.61899 -1.20018 61.4538
C -4.61989 -2.40579 63.54
C -3.92181 0.00449956 61.1313
C -3.92304 0.00355366 65.9506
C -3.92153 2.09001 62.3377
C -3.92207 2.09069 64.7468
C -3.92319 -2.08304 64.7448
C -3.9232 -2.08313 62.3351
C -2.48261 0.00332938 65.9508
C -2.48119 2.08941 62.338
C -2.48162 2.09052 64.7476
C -2.48104 0.00349318 61.1317
C -2.48273 -2.08282 64.7452
C -2.48244 -2.08366 62.3357
C -1.7841 1.20759 61.4559
C -1.78595 1.20819 65.6292
C -1.78484 2.41282 63.5428
C -1.78641 -1.20114 65.6275
C -1.78519 -1.20181 61.4538
C -1.78638 -2.40675 63.5407
C -0.343625 1.20654 61.4568
C -0.345205 1.2083 65.6296
C -0.344324 2.4134 63.5426
C -0.346338 -1.20143 65.628
C -0.344219 -1.2029 61.4549
C -0.346024 -2.40779 63.5414
C 0.352844 0.00193404 61.1335
C 0.350296 0.00294529 65.9518
C 0.352648 2.08887 62.3383
C 0.351596 2.09071 64.748
C 0.349799 -2.08467 64.7469
C 0.351382 -2.08479 62.3373
C 1.7905 0.00250615 65.9531
C 1.79323 2.08786 62.339
C 1.79199 2.08933 64.7483
C 1.79366 0.0014496 61.1341
C 1.79033 -2.08467 64.7491
C 1.79209 -2.08506 62.3391
C 2.49039 1.20585 61.4572
C 2.48779 1.20698 65.6308
C 2.48938 2.41107 63.5436
C 2.48671 -1.20237 65.6312
C 2.48944 -1.2037 61.4577
C 2.4876 -2.40742 63.5446
C 3.93089 1.20528 61.4583
C 3.92839 1.20698 65.6318
C 3.92993 2.41125 63.5445
C 3.92736 -1.20265 65.6322
C 3.9298 -1.2044 61.4589
C 3.92811 -2.40847 63.5458
C 4.62678 5.57153e-05 61.1363
C 4.62455 0.0018983 65.9545
C 4.62745 2.08729 62.3405
C 4.62576 2.0893 64.7502
C 4.62395 -2.08528 64.751
C 4.62561 -2.08606 62.3417
C 6.06527 0.00177863 65.9558
C 6.06811 2.08697 62.3412
C 6.06666 2.08911 64.7513
C 6.06722 -0.00115144 61.1374
C 6.06469 -2.08503 64.7521
C 6.06589 -2.08716 62.3423
C 6.76457 1.20295 61.4611
C 6.76265 1.20633 65.6333
C 6.76419 2.41147 63.5465
C 6.7613 -1.20326 65.6344
C 6.76274 -1.20659 61.4601
C 6.76159 -2.40876 63.5479
C 8.20486 1.20171 61.462
C 8.2032 1.20553 65.6338
C 8.20504 2.4096 63.5469
C 8.20172 -1.20476 65.6354
C 8.20338 -1.20769 61.461
C 8.20209 -2.41024 63.549
C 8.90076 -0.00312332 61.139
C 8.89869 0.000197785 65.9571
C 8.90173 2.08376 62.343
C 8.90071 2.08698 64.7525
C 8.89816 -2.08832 64.7545
C 8.8994 -2.08886 62.3446
C 10.3392 -0.00029253 65.9585
C 10.3418 2.08294 62.3429
C 10.3412 2.08578 64.7525
C 10.3414 -0.00395766 61.1387
C 10.3388 -2.08844 64.7553
C 10.3399 -2.08951 62.3453
C 11.0384 1.20057 61.4614
C 11.0367 1.20403 65.6358
C 11.0382 2.40611 63.5476
C 11.0352 -1.20608 65.6373
C 11.0371 -1.20886 61.4629
C 11.0359 -2.41155 63.5508
C 12.4783 1.20039 61.4612
C 12.4772 1.20305 65.6358
C 12.4785 2.40586 63.5478
C 12.4761 -1.20639 65.6376
C 12.4776 -1.20893 61.4636
C 12.4764 -2.4117 63.5513
C 13.1745 -0.00494378 61.1395
C 13.173 -0.00178523 65.96
C 13.175 2.08215 62.3433
C 13.1743 2.08401 64.7532
C 13.1729 -2.08884 64.7561
C 13.1735 -2.09046 62.3465
C 14.6137 -0.00235103 65.9609
C 14.6153 2.08102 62.3436
C 14.6149 2.08338 64.7537
C 14.6148 -0.00535436 61.1384
C 14.6134 -2.08864 64.7551
C 14.6139 -2.09059 62.3456
C 15.3116 1.19928 61.4609
C 15.3106 1.20248 65.6372
C 15.3116 2.40375 63.5484
C 15.31 -1.20716 65.6372
C 15.3107 -1.21002 61.4625
C 15.3099 -2.4124 63.5506
C 16.7517 1.19865 61.4613
C 16.7513 1.20161 65.6366
C 16.7518 2.40352 63.5481
C 16.7504 -1.20751 65.6374
C 16.7513 -1.21082 61.462
C 16.7501 -2.41285 63.5507
C 17.4479 -0.00618031 61.1379
C 17.4476 -0.00314004 65.9602
C 17.4483 2.07976 62.3439
C 17.4481 2.08243 64.7533
C 17.4464 -2.09021 64.7554
C 17.4472 -2.09159 62.3459
C 18.8882 -0.0034854 65.9596
C 18.8882 2.07956 62.3438
C 18.8883 2.0823 64.7532
C 18.8883 -0.00663791 61.1388
C 18.8873 -2.0903 64.7557
C 18.8874 -2.09188 62.3463
C 19.5845 1.19791 61.4619
C 19.5847 1.20149 65.6365
C 19.585 2.40325 63.548
C 19.5845 -1.20847 65.6371
C 19.5843 -1.21164 61.4628
C 19.584 -2.4145 63.5511
C 21.0249 1.1977 61.4617
C 21.0256 1.20107 65.6365
C 21.0254 2.40285 63.5479
C 21.0248 -1.20901 65.6372
C 21.0245 -1.21139 61.4632
C 21.0246 -2.41466 63.5505
C 21.7212 -0.00726446 61.1391
C 21.7216 -0.00417422 65.9601
C 21.7216 2.07964 62.3431
C 21.7223 2.08097 64.7524
C 21.7213 -2.09118 64.7551
C 21.7212 -2.0929 62.3455
C 23.1622 -0.0050075 65.9594
C 23.162 2.0806 62.3428
C 23.1625 2.08002 64.7521
C 23.1614 -0.00645538 61.1388
C 23.1615 -2.09167 64.755
C 23.1614 -2.09218 62.3458
C 23.8578 1.19878 61.4603
C 23.8587 1.19942 65.635
C 23.8588 2.40277 63.5474
C 23.8585 -1.20996 65.6368
C 23.8577 -1.21074 61.463
C 23.8582 -2.41469 63.5504
C 25.2983 1.19814 61.4598
C 25.2994 1.19975 65.6344
C 25.2992 2.40272 63.5467
C 25.2988 -1.20953 65.6358
C 25.2982 -1.21166 61.4608
C 25.2986 -2.41406 63.5493
C 25.9946 -0.00703866 61.1367
C 25.9955 -0.00465613 65.9576
C 25.9954 2.07959 62.3418
C 25.9957 2.08056 64.7514
C 25.9953 -2.09184 64.7541
C 25.9947 -2.09198 62.3443
C 27.4357 -0.00469476 65.9577
C 27.4358 2.07935 62.3412
C 27.4361 2.08103 64.7512
C 27.4356 -0.00706748 61.1363
C 27.4357 -2.09124 64.7535
C 27.4352 -2.09211 62.3445
C 28.1322 1.19761 61.4589
C 28.1323 1.19981 65.6341
C 28.1326 2.40229 63.546
C 28.1323 -1.21009 65.6358
C 28.1318 -1.21154 61.4613
C 28.132 -2.41427 63.549
C 29.5728 1.19736 61.4591
C 29.5729 1.19889 65.6331
C 29.5728 2.40263 63.5458
C 29.573 -1.21047 65.6358
C 29.5723 -1.21212 61.4617
C 29.5724 -2.41519 63.5488
C 30.2693 -0.00814438 61.1368
C 30.2694 -0.00549282 65.9573
C 30.2692 2.07924 62.3412
C 30.2694 2.08022 64.7509
C 30.269 -2.09306 64.754
C 30.269 -2.09349 62.3443
C 31.7096 -0.00588125 65.9572
C 31.7094 2.07876 62.3413
C 31.7098 2.08051 64.7513
C 31.7099 -0.00825932 61.1366
C 31.7096 -2.09392 64.7538
C 31.7096 -2.09429 62.344
C 32.4062 1.1968 61.4592
C 32.4062 1.19908 65.6345
C 32.406 2.40244 63.546
C 32.4062 -1.211 65.6344
C 32.4065 -1.21294 61.461
C 32.4057 -2.41764 63.549
C 33.8468 1.19671 61.4606
C 33.8462 1.19861 65.6336
C 33.8461 2.40272 63.5463
C 33.8462 -1.21097 65.6343
C 33.847 -1.21297 61.4618
C 33.8465 -2.41758 63.549
C 34.5436 -0.00818501 61.1384
C 34.543 -0.00605057 65.9559
C 34.5427 2.0795 62.342
C 34.5422 2.08083 64.7517
C 34.5429 -2.09372 64.7534
C 34.5433 -2.09467 62.3442
C 35.9834 -0.00620933 65.9565
C 35.983 2.07989 62.3426
C 35.9827 2.08137 64.7524
C 35.984 -0.00769685 61.1383
C 35.9835 -2.0936 64.7535
C 35.9837 -2.09406 62.3441
C 36.6798 1.19768 61.4614
C 36.6795 1.19851 65.6333
C 36.6789 2.40434 63.5474
C 36.68 -1.21116 65.6351
C 36.6804 -1.21197 61.4627
C 36.6799 -2.41722 63.5491
C 38.1198 1.19827 61.4622
C 38.1195 1.19938 65.6342
C 38.1192 2.40497 63.5485
C 38.1204 -1.21024 65.6355
C 38.1205 -1.21158 61.4637
C 38.1205 -2.41684 63.5498
C 38.8166 -0.00672318 61.1414
C 38.8161 -0.00499789 65.9572
C 38.8158 2.08111 62.344
C 38.8156 2.08221 64.7534
C 38.8169 -2.09243 64.7541
C 38.8169 -2.09417 62.3451
C 40.2563 -0.0041464 65.9582
C 40.2561 2.08209 62.3447
C 40.2559 2.08332 64.7541
C 40.2567 -0.00585197 61.1416
C 40.2575 -2.09147 64.7546
C 40.2576 -2.0933 62.3451
C 40.9528 1.19942 61.4634
C 40.952 1.20128 65.6363
C 40.9524 2.40555 63.5492
C 40.9535 -1.20842 65.6354
C 40.9537 -1.21036 61.4637
C 40.9541 -2.41588 63.5503
C 42.393 1.20009 61.4638
C 42.3925 1.20251 65.6368
C 42.3926 2.40655 63.5498
C 42.3939 -1.20732 65.6367
C 42.3939 -1.20965 61.4644
C 42.3944 -2.4142 63.5507
C 43.0896 -0.00480398 61.1416
C 43.0896 -0.00198242 65.9593
C 43.0888 2.08262 62.3456
C 43.0888 2.08526 64.7552
C 43.0907 -2.08992 64.7553
C 43.0906 -2.09187 62.3458
C 44.5303 -0.00154753 65.9595
C 44.5291 2.08277 62.3455
C 44.5294 2.08552 64.7552
C 44.5296 -0.00452597 61.1411
C 44.531 -2.0892 64.7557
C 44.5307 -2.09076 62.3462
C 45.2254 1.20043 61.4641
C 45.2262 1.20396 65.6374
C 45.2259 2.40736 63.5498
C 45.227 -1.2061 65.6367
C 45.226 -1.20886 61.4637
C 45.2273 -2.41232 63.551
C 46.6655 1.20116 61.4637
C 46.6668 1.20422 65.6364
C 46.6661 2.40804 63.5494
C 46.6675 -1.20524 65.6366
C 46.6661 -1.20775 61.4638
C 46.6675 -2.41216 63.5511
C 47.3619 -0.00337085 61.1396
C 47.3638 -0.000427147 65.9587
C 47.3621 2.08387 62.3447
C 47.363 2.0865 64.7542
C 47.3641 -2.08768 64.7554
C 47.3631 -2.08884 62.3459
C 48.8041 0.000143731 65.9587
C 48.8022 2.08451 62.3433
C 48.8034 2.08634 64.7528
C 48.8022 -0.00238418 61.1384
C 48.8043 -2.08739 64.7543
C 48.8032 -2.08776 62.3448
C 49.4985 1.20256 61.4609
C 49.5001 1.20492 65.6351
C 49.4993 2.40802 63.5474
C 49.5005 -1.20476 65.6359
C 49.4989 -1.2067 61.4616
C 49.5003 -2.40985 63.5489
C 50.9391 1.20374 61.4601
C 50.9405 1.20527 65.6352
C 50.9393 2.40807 63.547
C 50.9409 -1.20484 65.6358
C 50.9393 -1.20569 61.4608
C 50.9406 -2.40963 63.5483
C 51.6354 -0.000856241 61.1369
C 51.637 0.00046399 65.9578
C 51.6355 2.08545 62.342
C 51.6363 2.08681 64.7518
C 51.637 -2.08681 64.7533
C 51.6365 -2.08651 62.343
C 53.0773 0.000576775 65.9563
C 53.0758 2.08589 62.3416
C 53.0766 2.0869 64.7509
C 53.0759 -0.0004557 61.1356
C 53.0774 -2.08619 64.7524
C 53.0767 -2.08595 62.3423
C 53.772 1.20458 61.4589
C 53.7734 1.20495 65.6324
C 53.7725 2.40931 63.5459
C 53.7737 -1.20419 65.6341
C 53.7728 -1.20479 61.4592
C 53.7732 -2.4086 63.547
C 55.2126 1.2052 61.4588
C 55.2137 1.20581 65.6327
C 55.213 2.41058 63.5457
C 55.2138 -1.20388 65.6331
C 55.2135 -1.20476 61.4584
C 55.2134 -2.40852 63.546
C 55.9093 0.000452786 61.1357
C 55.9103 0.000840801 65.9548
C 55.9096 2.08717 62.3408
C 55.9098 2.08769 64.7506
C 55.9099 -2.08613 64.7509
C 55.9098 -2.08588 62.3411
C 57.3503 0.000462431 65.9525
C 57.3497 2.08402 62.342
C 57.3499 2.08412 64.7482
C 57.3494 6.16673e-05 61.1387
C 57.3499 -2.08378 64.749
C 57.3497 -2.08314 62.3428
C 58.0484 1.19935 61.4679
C 58.0489 1.19968 65.6224
C 58.0487 2.39824 63.5448
C 58.0488 -1.19899 65.6228
C 58.0484 -1.19922 61.4679
C 58.0484 -2.39828 63.5455
C 59.485 1.17433 61.511
C 59.485 1.17433 65.579
C 59.485 2.34866 63.545
C 59.485 -1.17433 65.579
C 59.485 -1.17433 61.511
C 59.485 -2.34866 63.545
C 60.195 0 61.1963
C 60.195 0 65.8937
C 60.195 2.034 62.3707
C 60.195 2.034 64.7193
C 60.195 -2.034 64.7193
C 60.195 -2.034 62.3707
C 61.615 0 65.8937
C 61.615 2.034 62.3707
C 61.615 2.034 64.7193
C 61.615 0 61.1963
C 61.615 -2.034 64.7193
C 61.615 -2.034 62.3707
C 62.325 1.17433 61.511
C 62.325 1.17433 65.579
C 62.325 2.34866 63.545
C 62.325 -1.17433 65.579
C 62.325 -1.17433 61.511
C 62.325 -2.34866 63.545
C 63.745 1.17433 61.511
C 63.745 1.17433 65.579
C 63.745 2.34866 63.545
C 63.745 -1.17433 65.579
C 63.745 -1.17433 61.511
C 63.745 -2.34866 63.545
